 Gaussian 16, Revision B.01,
 Gaussian 16:  ES64L-G16RevB.01 20-Dec-2017

 ----------------------------------------------
 # nmr=giao hf/sto-3g pop=nbo geom=connectivity
 ----------------------------------------------

 ------------------
 pleiokomenine_C_1a
 ------------------
 Symbolic Z-matrix:
 Charge =  0 Multiplicity = 1

                         Standard orientation:
 ---------------------------------------------------------------------
 Center     Atomic      Atomic             Coordinates (Angstroms)
 Number     Number       Type             X           Y           Z
 ---------------------------------------------------------------------
      1          6           0       -1.697950    1.709245   -1.546838
      2          6           0       -1.164314    3.004457   -1.608674
      3          6           0       -1.725669    4.024276   -0.811139
      4          6           0       -2.812245    3.771025    0.038160
      5          6           0       -3.329481    2.489101    0.098077
      6          6           0       -2.749763    1.467232   -0.679182
      7          7           0       -4.421534    2.013708    0.879864
      8          6           0       -3.383623    0.158607   -0.280196
      9          6           0       -4.764388    0.741357    0.189379
     10          6           0       -3.632923   -0.960366   -1.290903
     11          6           0       -5.646807    1.088531   -1.094952
     12          6           0       -5.872346   -0.140257   -1.978522
     13          6           0       -5.127856   -1.341395   -1.383499
     14          7           0       -2.951813   -2.121504   -0.713397
     15          6           0       -2.841957   -3.213946   -1.654005
     16          6           0       -4.271459   -3.714557   -1.924780
     17          6           0       -5.254883   -2.586809   -2.293532
     18          6           0       -2.382519   -0.475565    0.724501
     19          6           0       -1.757961   -1.626440   -0.068585
     20          6           0       -5.721519   -1.579831    0.050212
     21          6           0       -5.617640   -0.300190    0.944497
     22          6           0       -5.213170   -0.620717    2.374427
     23          8           0       -4.859285   -1.719848    2.782833
     24          8           0       -5.394317    0.462896    3.181549
     25          6           0       -5.015737    0.251861    4.540845
     26          6           0       -5.447756    2.984323    1.224709
     27          6           0        0.067264    3.273628   -2.449167
     28          6           0        1.353207    2.946524   -1.720217
     29          6           0        1.705869    1.608710   -1.498562
     30          6           0        2.190323    3.967386   -1.229243
     31          6           0        3.353599    3.666726   -0.506110
     32          6           0        3.662220    2.341267   -0.247025
     33          6           0        2.841022    1.324356   -0.758234
     34          7           0        4.732916    1.823137    0.530274
     35          6           0        3.421112   -0.018010   -0.390394
     36          6           0        4.239791    0.466925    0.874904
     37          6           0        2.498758   -1.177769    0.027074
     38          6           0        3.247755    0.569595    2.117483
     39          6           0        2.638438   -0.797002    2.459590
     40          6           0        3.027486   -1.807004    1.360293
     41          7           0        2.453802   -2.110168   -1.171717
     42          6           0        2.010139   -3.510824   -0.839064
     43          6           0        2.598110   -4.103614    0.426356
     44          6           0        2.376689   -3.170956    1.610728
     45          6           0        4.173105   -0.538489   -1.641652
     46          6           0        3.819512   -2.014346   -1.775807
     47          6           0        4.587789   -1.925958    1.453878
     48          6           0        5.297333   -0.554449    1.319967
     49          6           0        6.560330   -0.646999    0.482564
     50          8           0        6.822639   -1.569238   -0.280385
     51          8           0        7.395203    0.394979    0.745670
     52          6           0        8.590066    0.401073   -0.035332
     53          6           0        5.287078    2.707252    1.545122
     54          8           0        1.532395   -1.629705   -2.093644
     55          1           0       -1.258412    0.896967   -2.118869
     56          1           0       -1.300472    5.025187   -0.834726
     57          1           0       -3.216499    4.571260    0.646563
     58          1           0       -3.221131   -0.700050   -2.275718
     59          1           0       -5.198777    1.882251   -1.705696
     60          1           0       -6.621699    1.488088   -0.785302
     61          1           0       -6.946010   -0.350445   -2.059137
     62          1           0       -5.521499    0.072693   -2.996123
     63          1           0       -2.352844   -2.905101   -2.585497
     64          1           0       -2.256436   -4.036911   -1.228620
     65          1           0       -4.646015   -4.228573   -1.030009
     66          1           0       -4.253647   -4.461182   -2.727017
     67          1           0       -5.050585   -2.293802   -3.332070
     68          1           0       -6.281025   -2.973100   -2.276217
     69          1           0       -2.877727   -0.881314    1.605424
     70          1           0       -1.601957    0.202739    1.089767
     71          1           0       -1.010572   -1.269419   -0.784833
     72          1           0       -1.299367   -2.363893    0.596774
     73          1           0       -6.781551   -1.854226   -0.039936
     74          1           0       -5.240458   -2.441557    0.524186
     75          1           0       -6.644012    0.084628    1.047674
     76          1           0       -3.963398   -0.042235    4.607346
     77          1           0       -5.144434    1.195333    5.078406
     78          1           0       -5.660285   -0.501609    5.003964
     79          1           0       -5.804519    3.536793    0.348118
     80          1           0       -5.064280    3.701661    1.958152
     81          1           0       -6.310186    2.490222    1.682392
     82          1           0        0.069534    4.322903   -2.771634
     83          1           0        0.017792    2.689756   -3.377748
     84          1           0        1.100253    0.799108   -1.895600
     85          1           0        1.933763    5.010211   -1.401173
     86          1           0        3.978010    4.473774   -0.140972
     87          1           0        1.456268   -0.856553    0.160110
     88          1           0        3.774581    0.953218    3.000657
     89          1           0        2.435658    1.283544    1.931872
     90          1           0        2.998158   -1.131662    3.440866
     91          1           0        1.548688   -0.703661    2.547852
     92          1           0        0.918259   -3.454865   -0.740396
     93          1           0        2.241669   -4.123527   -1.717546
     94          1           0        2.112753   -5.065411    0.629882
     95          1           0        3.661465   -4.321645    0.289976
     96          1           0        1.298165   -3.048392    1.775298
     97          1           0        2.779764   -3.631016    2.520949
     98          1           0        3.810349   -0.041164   -2.552672
     99          1           0        5.245994   -0.353802   -1.641552
    100          1           0        3.756308   -2.346990   -2.817028
    101          1           0        4.488697   -2.674079   -1.227578
    102          1           0        4.974389   -2.655807    0.743381
    103          1           0        4.853526   -2.344307    2.435815
    104          1           0        5.658405   -0.290250    2.325730
    105          1           0        9.206176   -0.471214    0.203730
    106          1           0        9.154116    1.303547    0.215834
    107          1           0        8.352175    0.428063   -1.103450
    108          1           0        5.992864    2.168888    2.184925
    109          1           0        5.843033    3.526051    1.075844
    110          1           0        4.510148    3.134217    2.189378
 ---------------------------------------------------------------------

 SCF Done:  E(RHF) =  -2300.22209592     A.U. after   16 cycles

      1  C    Isotropic =   125.8421   Anisotropy =   149.0305

      2  C    Isotropic =   119.5089   Anisotropy =   158.6309

      3  C    Isotropic =   119.8183   Anisotropy =   152.5375

      4  C    Isotropic =   133.6020   Anisotropy =   143.2451

      5  C    Isotropic =   108.5177   Anisotropy =   128.6892

      6  C    Isotropic =   117.3548   Anisotropy =   143.1966

      7  N    Isotropic =   272.8011   Anisotropy =    82.7171

      8  C    Isotropic =   198.3041   Anisotropy =    12.4710

      9  C    Isotropic =   180.1697   Anisotropy =    43.4298

     10  C    Isotropic =   189.2941   Anisotropy =    34.1375

     11  C    Isotropic =   212.7615   Anisotropy =    20.9709

     12  C    Isotropic =   214.4006   Anisotropy =    19.5385

     13  C    Isotropic =   210.8296   Anisotropy =     7.7607

     14  N    Isotropic =   299.2801   Anisotropy =    58.9467

     15  C    Isotropic =   202.0116   Anisotropy =    38.9194

     16  C    Isotropic =   219.2886   Anisotropy =    11.2271

     17  C    Isotropic =   213.9043   Anisotropy =    22.6976

     18  C    Isotropic =   209.1297   Anisotropy =    32.6970

     19  C    Isotropic =   199.9783   Anisotropy =    42.1884

     20  C    Isotropic =   212.1884   Anisotropy =    20.2602

     21  C    Isotropic =   208.1493   Anisotropy =    10.5743

     22  C    Isotropic =    96.8248   Anisotropy =    98.2765

     23  O    Isotropic =  -135.9576   Anisotropy =   888.7358

     24  O    Isotropic =   284.6361   Anisotropy =   138.7350

     25  C    Isotropic =   197.4952   Anisotropy =    56.7582

     26  C    Isotropic =   209.8865   Anisotropy =    42.2643

     27  C    Isotropic =   206.5094   Anisotropy =    14.9317

     28  C    Isotropic =   120.2157   Anisotropy =   157.0956

     29  C    Isotropic =   121.8813   Anisotropy =   156.7161

     30  C    Isotropic =   119.3942   Anisotropy =   150.3389

     31  C    Isotropic =   134.3869   Anisotropy =   141.2804

     32  C    Isotropic =   109.2876   Anisotropy =   126.2392

     33  C    Isotropic =   119.8674   Anisotropy =   135.0681

     34  N    Isotropic =   274.6638   Anisotropy =    81.0738

     35  C    Isotropic =   195.7860   Anisotropy =    15.4255

     36  C    Isotropic =   181.4647   Anisotropy =    44.5192

     37  C    Isotropic =   180.0456   Anisotropy =    44.0914

     38  C    Isotropic =   213.9559   Anisotropy =    18.7738

     39  C    Isotropic =   212.7692   Anisotropy =    20.3107

     40  C    Isotropic =   212.2530   Anisotropy =     8.5691

     41  N    Isotropic =   235.1062   Anisotropy =    25.5800

     42  C    Isotropic =   195.0561   Anisotropy =    47.8034

     43  C    Isotropic =   223.0733   Anisotropy =     9.5171

     44  C    Isotropic =   215.8953   Anisotropy =    18.0857

     45  C    Isotropic =   211.2565   Anisotropy =    37.1882

     46  C    Isotropic =   191.7112   Anisotropy =    54.0931

     47  C    Isotropic =   212.5924   Anisotropy =    22.8984

     48  C    Isotropic =   209.5309   Anisotropy =    10.7660

     49  C    Isotropic =    96.1093   Anisotropy =    98.9136

     50  O    Isotropic =  -133.8427   Anisotropy =   886.7530

     51  O    Isotropic =   283.3483   Anisotropy =   139.1924

     52  C    Isotropic =   197.2037   Anisotropy =    58.1159

     53  C    Isotropic =   209.9312   Anisotropy =    41.6198

     54  O    Isotropic =     2.2667   Anisotropy =   520.6744

     55  H    Isotropic =    25.5620   Anisotropy =    12.0588

     56  H    Isotropic =    25.8791   Anisotropy =     6.9135

     57  H    Isotropic =    26.6304   Anisotropy =     7.7847

     58  H    Isotropic =    31.9123   Anisotropy =     7.0234

     59  H    Isotropic =    32.9118   Anisotropy =     8.6839

     60  H    Isotropic =    32.1093   Anisotropy =    13.9457

     61  H    Isotropic =    32.2606   Anisotropy =    15.9795

     62  H    Isotropic =    32.6031   Anisotropy =    12.7966

     63  H    Isotropic =    32.1267   Anisotropy =    10.5311

     64  H    Isotropic =    31.6358   Anisotropy =    13.6554

     65  H    Isotropic =    31.8402   Anisotropy =    12.4299

     66  H    Isotropic =    32.3618   Anisotropy =    17.1415

     67  H    Isotropic =    32.4873   Anisotropy =    12.4364

     68  H    Isotropic =    32.2457   Anisotropy =    15.4416

     69  H    Isotropic =    32.5222   Anisotropy =    11.4707

     70  H    Isotropic =    33.3587   Anisotropy =    11.3023

     71  H    Isotropic =    31.4266   Anisotropy =    17.6711

     72  H    Isotropic =    32.0446   Anisotropy =    16.0747

     73  H    Isotropic =    32.0071   Anisotropy =    15.6233

     74  H    Isotropic =    30.3101   Anisotropy =     9.5894

     75  H    Isotropic =    31.2127   Anisotropy =    13.0995

     76  H    Isotropic =    30.6616   Anisotropy =     7.6456

     77  H    Isotropic =    30.5654   Anisotropy =    11.7132

     78  H    Isotropic =    30.5358   Anisotropy =    12.0517

     79  H    Isotropic =    31.8807   Anisotropy =    12.1653

     80  H    Isotropic =    30.7180   Anisotropy =    14.2916

     81  H    Isotropic =    30.8755   Anisotropy =    11.1211

     82  H    Isotropic =    29.9382   Anisotropy =    12.4905

     83  H    Isotropic =    29.9059   Anisotropy =     7.9555

     84  H    Isotropic =    24.7358   Anisotropy =    14.1160

     85  H    Isotropic =    25.7140   Anisotropy =     6.5532

     86  H    Isotropic =    26.6845   Anisotropy =     7.8781

     87  H    Isotropic =    31.0822   Anisotropy =    13.6211

     88  H    Isotropic =    32.3376   Anisotropy =    13.4427

     89  H    Isotropic =    33.2748   Anisotropy =     9.1189

     90  H    Isotropic =    32.4463   Anisotropy =    14.6761

     91  H    Isotropic =    32.8013   Anisotropy =    13.9627

     92  H    Isotropic =    30.8111   Anisotropy =    15.3803

     93  H    Isotropic =    30.8753   Anisotropy =    13.0239

     94  H    Isotropic =    32.3343   Anisotropy =    17.2969

     95  H    Isotropic =    32.5925   Anisotropy =    11.6334

     96  H    Isotropic =    32.6227   Anisotropy =    13.3666

     97  H    Isotropic =    32.5007   Anisotropy =    14.5854

     98  H    Isotropic =    31.6464   Anisotropy =    10.8589

     99  H    Isotropic =    32.8622   Anisotropy =    12.2445

    100  H    Isotropic =    30.9576   Anisotropy =    14.7250

    101  H    Isotropic =    31.4894   Anisotropy =     8.9702

    102  H    Isotropic =    31.6532   Anisotropy =     9.7096

    103  H    Isotropic =    32.2594   Anisotropy =    14.6883

    104  H    Isotropic =    31.2391   Anisotropy =    12.7521

    105  H    Isotropic =    30.5725   Anisotropy =    11.7418

    106  H    Isotropic =    30.5113   Anisotropy =    12.2931

    107  H    Isotropic =    30.6309   Anisotropy =     7.8205

    108  H    Isotropic =    30.9974   Anisotropy =    11.0398

    109  H    Isotropic =    30.7616   Anisotropy =    14.8513

    110  H    Isotropic =    31.9937   Anisotropy =    11.1583

 The electronic state is 1-A.
 Alpha  occ. eigenvalues --  -20.31270 -20.29711 -20.25146 -20.23714 -19.91939
 Alpha  occ. eigenvalues --  -15.47870 -15.33754 -15.32804 -15.29293 -11.17180
 Alpha  occ. eigenvalues --  -11.15569 -11.10973 -11.10102 -11.09930 -11.09351
 Alpha  occ. eigenvalues --  -11.09120 -11.08800 -11.08596 -11.08098 -11.07269
 Alpha  occ. eigenvalues --  -11.07240 -11.07156 -11.06878 -11.06160 -11.05918
 Alpha  occ. eigenvalues --  -11.05901 -11.05731 -11.05575 -11.05528 -11.05491
 Alpha  occ. eigenvalues --  -11.05351 -11.05026 -11.04948 -11.04816 -11.04808
 Alpha  occ. eigenvalues --  -11.04498 -11.04460 -11.03664 -11.03167 -11.03103
 Alpha  occ. eigenvalues --  -11.03040 -11.03016 -11.03001 -11.02956 -11.01434
 Alpha  occ. eigenvalues --  -11.01392 -11.01386 -11.01161 -11.01032 -11.01011
 Alpha  occ. eigenvalues --  -11.00924 -11.00895 -11.00849 -11.00722  -1.38449
 Alpha  occ. eigenvalues --   -1.36979  -1.28353  -1.28204  -1.26666  -1.21201
 Alpha  occ. eigenvalues --   -1.20778  -1.18442  -1.11918  -1.08670  -1.08153
 Alpha  occ. eigenvalues --   -1.06973  -1.06272  -1.04061  -1.03323  -1.00662
 Alpha  occ. eigenvalues --   -0.99828  -0.98662  -0.97909  -0.97299  -0.96590
 Alpha  occ. eigenvalues --   -0.95694  -0.94699  -0.93434  -0.93371  -0.92237
 Alpha  occ. eigenvalues --   -0.91881  -0.91014  -0.90728  -0.89246  -0.87755
 Alpha  occ. eigenvalues --   -0.86148  -0.84325  -0.82929  -0.82390  -0.80738
 Alpha  occ. eigenvalues --   -0.80679  -0.78872  -0.78746  -0.77993  -0.76276
 Alpha  occ. eigenvalues --   -0.76165  -0.74470  -0.73298  -0.72421  -0.72245
 Alpha  occ. eigenvalues --   -0.71279  -0.70360  -0.69492  -0.68757  -0.66924
 Alpha  occ. eigenvalues --   -0.65847  -0.64615  -0.64069  -0.63722  -0.62882
 Alpha  occ. eigenvalues --   -0.62637  -0.61885  -0.61709  -0.61428  -0.60952
 Alpha  occ. eigenvalues --   -0.60496  -0.59754  -0.59256  -0.59160  -0.58910
 Alpha  occ. eigenvalues --   -0.58239  -0.57783  -0.57580  -0.57224  -0.57110
 Alpha  occ. eigenvalues --   -0.56761  -0.56273  -0.56013  -0.55744  -0.55631
 Alpha  occ. eigenvalues --   -0.55313  -0.55164  -0.54570  -0.54133  -0.53783
 Alpha  occ. eigenvalues --   -0.53509  -0.53031  -0.52671  -0.52607  -0.52158
 Alpha  occ. eigenvalues --   -0.52088  -0.51132  -0.50904  -0.50593  -0.50246
 Alpha  occ. eigenvalues --   -0.49860  -0.49667  -0.49502  -0.48800  -0.48580
 Alpha  occ. eigenvalues --   -0.48327  -0.47891  -0.47536  -0.47436  -0.46792
 Alpha  occ. eigenvalues --   -0.46278  -0.46082  -0.45881  -0.45850  -0.45240
 Alpha  occ. eigenvalues --   -0.45084  -0.44721  -0.44691  -0.44235  -0.43786
 Alpha  occ. eigenvalues --   -0.43608  -0.43343  -0.43054  -0.42630  -0.42356
 Alpha  occ. eigenvalues --   -0.41677  -0.41480  -0.41061  -0.40790  -0.40493
 Alpha  occ. eigenvalues --   -0.40275  -0.39526  -0.39118  -0.38740  -0.37586
 Alpha  occ. eigenvalues --   -0.37003  -0.36523  -0.35565  -0.35118  -0.34558
 Alpha  occ. eigenvalues --   -0.33813  -0.33294  -0.32415  -0.32240  -0.31109
 Alpha  occ. eigenvalues --   -0.26584  -0.26478  -0.26099  -0.21078  -0.19888
 Alpha  occ. eigenvalues --   -0.15816  -0.15643
 Alpha virt. eigenvalues --    0.27166   0.27715   0.28127   0.29810   0.29970
 Alpha virt. eigenvalues --    0.31473   0.46606   0.47369   0.48912   0.49127
 Alpha virt. eigenvalues --    0.50246   0.50414   0.50783   0.51492   0.52791

 Mulliken charges:
               1
     1  C   -0.077066
     2  C    0.001502
     3  C   -0.063897
     4  C   -0.090494
     5  C    0.088391
     6  C   -0.014129
     7  N   -0.283652
     8  C    0.015379
     9  C    0.129450
    10  C    0.039800
    11  C   -0.114541
    12  C   -0.107895
    13  C    0.041623
    14  N   -0.292201
    15  C   -0.012507
    16  C   -0.095630
    17  C   -0.100307
    18  C   -0.099271
    19  C   -0.019028
    20  C   -0.104136
    21  C   -0.063889
    22  C    0.318471
    23  O   -0.275066
    24  O   -0.255933
    25  C   -0.055232
    26  C   -0.078563
    27  C   -0.109347
    28  C   -0.000019
    29  C   -0.072796
    30  C   -0.060748
    31  C   -0.091699
    32  C    0.087899
    33  C   -0.014612
    34  N   -0.287035
    35  C    0.020678
    36  C    0.128425
    37  C    0.040618
    38  C   -0.115921
    39  C   -0.104832
    40  C    0.028092
    41  N   -0.085954
    42  C   -0.007928
    43  C   -0.110802
    44  C   -0.102238
    45  C   -0.106781
    46  C   -0.012132
    47  C   -0.111473
    48  C   -0.067145
    49  C    0.320342
    50  O   -0.278849
    51  O   -0.254092
    52  C   -0.055648
    53  C   -0.079325
    54  O   -0.455051
    55  H    0.065084
    56  H    0.054445
    57  H    0.057331
    58  H    0.045575
    59  H    0.053781
    60  H    0.048548
    61  H    0.047553
    62  H    0.049520
    63  H    0.045494
    64  H    0.058196
    65  H    0.054135
    66  H    0.049004
    67  H    0.047246
    68  H    0.050057
    69  H    0.063081
    70  H    0.054478
    71  H    0.058561
    72  H    0.053403
    73  H    0.047235
    74  H    0.079401
    75  H    0.062383
    76  H    0.073022
    77  H    0.075760
    78  H    0.071042
    79  H    0.054314
    80  H    0.070459
    81  H    0.075360
    82  H    0.055706
    83  H    0.061288
    84  H    0.089965
    85  H    0.055615
    86  H    0.056703
    87  H    0.086301
    88  H    0.052761
    89  H    0.059366
    90  H    0.051537
    91  H    0.054940
    92  H    0.089009
    93  H    0.080460
    94  H    0.066096
    95  H    0.057176
    96  H    0.057414
    97  H    0.057691
    98  H    0.082150
    99  H    0.071463
   100  H    0.088825
   101  H    0.067880
   102  H    0.065858
   103  H    0.055088
   104  H    0.067157
   105  H    0.072990
   106  H    0.078872
   107  H    0.075692
   108  H    0.075232
   109  H    0.073169
   110  H    0.056324
 Sum of Mulliken charges =  -0.00000

 Dipole moment (field-independent basis, Debye):
    X=              2.2693    Y=              0.0412    Z=              3.1674  Tot=              3.8967
 Quadrupole moment (field-independent basis, Debye-Ang):
   XX=           -273.6697   YY=           -295.9068   ZZ=           -300.0277
   XY=             -7.4172   XZ=             11.2642   YZ=              1.3779

 Summary of Natural Population Analysis:

                                       Natural Population
                Natural  -----------------------------------------------
    Atom  No    Charge         Core      Valence    Rydberg      Total
 -----------------------------------------------------------------------
      C    1   -0.06008      1.99992     4.06016    0.00000     6.06008
      C    2    0.01648      1.99990     3.98362    0.00000     5.98352
      C    3   -0.03627      1.99994     4.03632    0.00000     6.03627
      C    4   -0.08743      1.99993     4.08750    0.00000     6.08743
      C    5    0.11179      1.99985     3.88836    0.00000     5.88821
      C    6   -0.02338      1.99990     4.02348    0.00000     6.02338
      N    7   -0.27244      1.99998     5.27246    0.00000     7.27244
      C    8    0.01552      1.99996     3.98453    0.00000     5.98448
      C    9    0.17320      1.99996     3.82684    0.00000     5.82680
      C   10    0.07147      1.99994     3.92859    0.00000     5.92853
      C   11   -0.08418      1.99994     4.08425    0.00000     6.08418
      C   12   -0.07799      1.99996     4.07803    0.00000     6.07799
      C   13    0.06329      1.99998     3.93673    0.00000     5.93671
      N   14   -0.28145      1.99999     5.28146    0.00000     7.28145
      C   15    0.04183      1.99994     3.95823    0.00000     5.95817
      C   16   -0.05851      1.99996     4.05855    0.00000     6.05851
      C   17   -0.06424      1.99995     4.06429    0.00000     6.06424
      C   18   -0.06545      1.99994     4.06551    0.00000     6.06545
      C   19    0.03425      1.99995     3.96580    0.00000     5.96575
      C   20   -0.06647      1.99992     4.06655    0.00000     6.06647
      C   21   -0.08011      1.99994     4.08017    0.00000     6.08011
      C   22    0.40119      1.99991     3.59890    0.00000     5.59881
      O   23   -0.30915      1.99999     6.30916    0.00000     8.30915
      O   24   -0.26774      1.99999     6.26775    0.00000     8.26774
      C   25    0.03508      1.99984     3.96508    0.00000     5.96492
      C   26   -0.01627      1.99992     4.01634    0.00000     6.01627
      C   27   -0.08598      1.99995     4.08602    0.00000     6.08598
      C   28    0.01311      1.99990     3.98699    0.00000     5.98689
      C   29   -0.05202      1.99993     4.05210    0.00000     6.05202
      C   30   -0.03128      1.99994     4.03133    0.00000     6.03128
      C   31   -0.08967      1.99993     4.08974    0.00000     6.08967
      C   32    0.11171      1.99985     3.88843    0.00000     5.88829
      C   33   -0.02960      1.99990     4.02970    0.00000     6.02960
      N   34   -0.27555      1.99998     5.27557    0.00000     7.27555
      C   35    0.02167      1.99996     3.97837    0.00000     5.97833
      C   36    0.17158      1.99996     3.82846    0.00000     5.82842
      C   37    0.07310      1.99991     3.92699    0.00000     5.92690
      C   38   -0.08640      1.99994     4.08646    0.00000     6.08640
      C   39   -0.07291      1.99996     4.07296    0.00000     6.07291
      C   40    0.04988      1.99998     3.95015    0.00000     5.95012
      N   41    0.02590      1.99999     4.97411    0.00000     6.97410
      C   42    0.04342      1.99991     3.95667    0.00000     5.95658
      C   43   -0.08123      1.99997     4.08126    0.00000     6.08123
      C   44   -0.06993      1.99996     4.06998    0.00000     6.06993
      C   45   -0.08101      1.99994     4.08107    0.00000     6.08101
      C   46    0.03855      1.99992     3.96153    0.00000     5.96145
      C   47   -0.07503      1.99992     4.07511    0.00000     6.07503
      C   48   -0.08602      1.99995     4.08607    0.00000     6.08602
      C   49    0.40374      1.99991     3.59635    0.00000     5.59626
      O   50   -0.31324      1.99999     6.31325    0.00000     8.31324
      O   51   -0.26545      1.99999     6.26545    0.00000     8.26545
      C   52    0.03485      1.99984     3.96532    0.00000     5.96515
      C   53   -0.01654      1.99992     4.01662    0.00000     6.01654
      O   54   -0.50590      2.00000     6.50590    0.00000     8.50590
      H   55    0.03939      0.00000     0.96061    0.00000     0.96061
      H   56    0.02742      0.00000     0.97258    0.00000     0.97258
      H   57    0.03332      0.00000     0.96668    0.00000     0.96668
      H   58    0.01494      0.00000     0.98506    0.00000     0.98506
      H   59    0.03087      0.00000     0.96913    0.00000     0.96913
      H   60    0.02656      0.00000     0.97344    0.00000     0.97344
      H   61    0.02724      0.00000     0.97276    0.00000     0.97276
      H   62    0.02909      0.00000     0.97091    0.00000     0.97091
      H   63    0.01726      0.00000     0.98274    0.00000     0.98274
      H   64    0.03243      0.00000     0.96757    0.00000     0.96757
      H   65    0.03220      0.00000     0.96780    0.00000     0.96780
      H   66    0.02773      0.00000     0.97227    0.00000     0.97227
      H   67    0.02565      0.00000     0.97435    0.00000     0.97435
      H   68    0.02851      0.00000     0.97149    0.00000     0.97149
      H   69    0.03872      0.00000     0.96128    0.00000     0.96128
      H   70    0.03265      0.00000     0.96735    0.00000     0.96735
      H   71    0.02905      0.00000     0.97095    0.00000     0.97095
      H   72    0.02807      0.00000     0.97193    0.00000     0.97193
      H   73    0.02438      0.00000     0.97562    0.00000     0.97562
      H   74    0.05287      0.00000     0.94713    0.00000     0.94713
      H   75    0.03931      0.00000     0.96069    0.00000     0.96069
      H   76    0.04174      0.00000     0.95826    0.00000     0.95826
      H   77    0.04484      0.00000     0.95516    0.00000     0.95516
      H   78    0.03962      0.00000     0.96038    0.00000     0.96038
      H   79    0.02900      0.00000     0.97100    0.00000     0.97100
      H   80    0.04623      0.00000     0.95377    0.00000     0.95377
      H   81    0.05110      0.00000     0.94890    0.00000     0.94890
      H   82    0.03675      0.00000     0.96325    0.00000     0.96325
      H   83    0.04238      0.00000     0.95762    0.00000     0.95762
      H   84    0.06078      0.00000     0.93922    0.00000     0.93922
      H   85    0.02835      0.00000     0.97165    0.00000     0.97165
      H   86    0.03283      0.00000     0.96717    0.00000     0.96717
      H   87    0.05025      0.00000     0.94975    0.00000     0.94975
      H   88    0.03041      0.00000     0.96959    0.00000     0.96959
      H   89    0.03592      0.00000     0.96408    0.00000     0.96408
      H   90    0.03022      0.00000     0.96978    0.00000     0.96978
      H   91    0.03327      0.00000     0.96673    0.00000     0.96673
      H   92    0.05725      0.00000     0.94275    0.00000     0.94275
      H   93    0.04988      0.00000     0.95012    0.00000     0.95012
      H   94    0.04636      0.00000     0.95364    0.00000     0.95364
      H   95    0.03657      0.00000     0.96343    0.00000     0.96343
      H   96    0.03625      0.00000     0.96375    0.00000     0.96375
      H   97    0.03674      0.00000     0.96326    0.00000     0.96326
      H   98    0.05907      0.00000     0.94093    0.00000     0.94093
      H   99    0.04842      0.00000     0.95158    0.00000     0.95158
      H  100    0.05798      0.00000     0.94202    0.00000     0.94202
      H  101    0.03603      0.00000     0.96397    0.00000     0.96397
      H  102    0.04071      0.00000     0.95929    0.00000     0.95929
      H  103    0.03290      0.00000     0.96710    0.00000     0.96710
      H  104    0.04436      0.00000     0.95564    0.00000     0.95564
      H  105    0.04135      0.00000     0.95865    0.00000     0.95865
      H  106    0.04763      0.00000     0.95237    0.00000     0.95237
      H  107    0.04407      0.00000     0.95593    0.00000     0.95593
      H  108    0.05083      0.00000     0.94917    0.00000     0.94917
      H  109    0.04873      0.00000     0.95127    0.00000     0.95127
      H  110    0.03082      0.00000     0.96918    0.00000     0.96918
 =======================================================================
   * Total *   -0.00000    107.99668   286.00332    0.00000   394.00000

 Normal termination of Gaussian 16 at Thu May 30 08:59:07 2024.
