 Gaussian 16, Revision B.01,
 Gaussian 16:  ES64L-G16RevB.01 20-Dec-2017

 ----------------------------------------------
 # nmr=giao hf/sto-3g pop=nbo geom=connectivity
 ----------------------------------------------

 ------------------
 pleiokomenine_C_1a
 ------------------
 Symbolic Z-matrix:
 Charge =  0 Multiplicity = 1

                         Standard orientation:
 ---------------------------------------------------------------------
 Center     Atomic      Atomic             Coordinates (Angstroms)
 Number     Number       Type             X           Y           Z
 ---------------------------------------------------------------------
      1          6           0        1.832511    1.605706   -1.672598
      2          6           0        1.336851    2.911287   -1.789657
      3          6           0        1.963343    3.956267   -1.077966
      4          6           0        3.055893    3.710849   -0.233488
      5          6           0        3.499837    2.409548   -0.077183
      6          6           0        2.893521    1.374182   -0.814960
      7          7           0        4.505439    1.916422    0.806580
      8          6           0        3.612799    0.086678   -0.504567
      9          6           0        4.112028    0.484376    0.930061
     10          6           0        2.865788   -1.244582   -0.418693
     11          6           0        2.891658    0.390218    1.959777
     12          6           0        2.266306   -1.004618    1.976703
     13          6           0        2.996446   -1.902940    0.972967
     14          7           0        3.584837   -2.117135   -1.352644
     15          6           0        2.847957   -3.334390   -1.617214
     16          6           0        2.815853   -4.135877   -0.304287
     17          6           0        2.348487   -3.306630    0.906664
     18          6           0        4.602670   -0.121367   -1.680518
     19          6           0        3.994711   -1.288799   -2.462043
     20          6           0        4.501937   -1.952153    1.415634
     21          6           0        5.136341   -0.522601    1.496150
     22          6           0        6.543377   -0.479967    0.922297
     23          8           0        7.109588   -1.410975    0.363052
     24          8           0        7.145894    0.709606    1.204028
     25          6           0        8.464298    0.839433    0.674215
     26          6           0        4.788825    2.718589    1.985676
     27          6           0        0.098972    3.173958   -2.620074
     28          6           0       -1.184848    2.915534   -1.858438
     29          6           0       -1.572100    1.600545   -1.566468
     30          6           0       -1.968253    3.986703   -1.379443
     31          6           0       -3.129433    3.762016   -0.624359
     32          6           0       -3.503647    2.460064   -0.342743
     33          6           0       -2.705507    1.396294   -0.798016
     34          7           0       -4.640604    2.000935    0.381468
     35          6           0       -3.237462    0.111413   -0.218357
     36          6           0       -4.733299    0.584978   -0.054982
     37          6           0       -3.205076   -1.197424   -1.018097
     38          6           0       -5.453455    0.526828   -1.468414
     39          6           0       -5.447152   -0.892477   -2.036958
     40          6           0       -4.628974   -1.826122   -1.117382
     41          7           0       -2.163458   -2.081625   -0.341128
     42          6           0       -2.476662   -3.556811   -0.438629
     43          6           0       -3.197277   -3.875830   -1.731976
     44          6           0       -4.591126   -3.247349   -1.729594
     45          6           0       -2.375536   -0.143561    1.041139
     46          6           0       -2.115869   -1.631745    1.090561
     47          6           0       -5.377226   -1.815504    0.258657
     48          6           0       -5.557062   -0.373481    0.822912
     49          6           0       -5.308278   -0.299054    2.317538
     50          8           0       -4.680653   -1.130229    2.961279
     51          8           0       -5.931699    0.783016    2.858448
     52          6           0       -5.709959    0.949195    4.259023
     53          6           0       -5.804687    2.874291    0.377457
     54          8           0       -0.933951   -1.857826   -0.930930
     55          1           0        1.381058    0.782655   -2.218536
     56          1           0        1.585224    4.972463   -1.163552
     57          1           0        3.510708    4.531389    0.308509
     58          1           0        1.813711   -1.123902   -0.709159
     59          1           0        2.103759    1.122962    1.745656
     60          1           0        3.236812    0.638360    2.972562
     61          1           0        2.319613   -1.426434    2.987975
     62          1           0        1.200400   -0.928398    1.728990
     63          1           0        1.831632   -3.129926   -1.974604
     64          1           0        3.353349   -3.935176   -2.381728
     65          1           0        3.821778   -4.523960   -0.097567
     66          1           0        2.164470   -5.009392   -0.422828
     67          1           0        1.258368   -3.195452    0.832919
     68          1           0        2.541284   -3.863818    1.831112
     69          1           0        5.599066   -0.402748   -1.342393
     70          1           0        4.728850    0.749942   -2.334106
     71          1           0        3.149339   -0.966197   -3.080473
     72          1           0        4.742364   -1.773920   -3.096410
     73          1           0        4.569270   -2.416847    2.408859
     74          1           0        5.072944   -2.608878    0.751423
     75          1           0        5.289944   -0.314777    2.566269
     76          1           0        8.457614    0.714704   -0.413259
     77          1           0        8.823381    1.846538    0.903375
     78          1           0        9.137423    0.116156    1.144709
     79          1           0        3.879332    2.978179    2.538987
     80          1           0        5.302107    3.643973    1.702773
     81          1           0        5.453649    2.181254    2.668827
     82          1           0        0.116807    2.545888   -3.520761
     83          1           0        0.116988    4.206150   -2.993053
     84          1           0       -0.971221    0.750853   -1.880354
     85          1           0       -1.665779    5.011960   -1.582077
     86          1           0       -3.705282    4.606289   -0.263790
     87          1           0       -2.816456   -1.036618   -2.033778
     88          1           0       -6.492613    0.871020   -1.382247
     89          1           0       -4.990466    1.202404   -2.198333
     90          1           0       -6.477990   -1.255948   -2.137786
     91          1           0       -5.026871   -0.875660   -3.050743
     92          1           0       -1.517691   -4.082508   -0.367165
     93          1           0       -3.088587   -3.841796    0.422516
     94          1           0       -3.287053   -4.960297   -1.858458
     95          1           0       -2.624271   -3.499760   -2.588066
     96          1           0       -5.273296   -3.907314   -1.178473
     97          1           0       -4.959459   -3.243599   -2.763135
     98          1           0       -1.393695    0.345328    0.963264
     99          1           0       -2.808021    0.241203    1.966813
    100          1           0       -1.133721   -1.892094    1.497318
    101          1           0       -2.884949   -2.164390    1.647109
    102          1           0       -4.884019   -2.482808    0.968351
    103          1           0       -6.379259   -2.247669    0.124476
    104          1           0       -6.626315   -0.134233    0.716030
    105          1           0       -6.143340    0.112368    4.815374
    106          1           0       -6.208164    1.870249    4.573730
    107          1           0       -4.640355    1.044623    4.470877
    108          1           0       -6.668033    2.369988    0.822013
    109          1           0       -5.613018    3.769316    0.978882
    110          1           0       -6.083378    3.185355   -0.635772
 ---------------------------------------------------------------------

 SCF Done:  E(RHF) =  -2300.21565851     A.U. after   16 cycles

      1  C    Isotropic =   125.9345   Anisotropy =   148.0934

      2  C    Isotropic =   121.0361   Anisotropy =   156.6373

      3  C    Isotropic =   120.1230   Anisotropy =   151.1408

      4  C    Isotropic =   133.5838   Anisotropy =   143.5106

      5  C    Isotropic =   107.5150   Anisotropy =   130.0062

      6  C    Isotropic =   117.0436   Anisotropy =   144.0220

      7  N    Isotropic =   271.2490   Anisotropy =    81.6890

      8  C    Isotropic =   198.6981   Anisotropy =    13.4363

      9  C    Isotropic =   179.7845   Anisotropy =    43.6806

     10  C    Isotropic =   189.1866   Anisotropy =    32.4724

     11  C    Isotropic =   212.7244   Anisotropy =    20.7897

     12  C    Isotropic =   214.6667   Anisotropy =    17.2949

     13  C    Isotropic =   210.8633   Anisotropy =     7.5863

     14  N    Isotropic =   298.8283   Anisotropy =    57.5756

     15  C    Isotropic =   202.0681   Anisotropy =    38.9400

     16  C    Isotropic =   219.1912   Anisotropy =     8.0385

     17  C    Isotropic =   214.1307   Anisotropy =    21.5832

     18  C    Isotropic =   209.3971   Anisotropy =    31.1353

     19  C    Isotropic =   199.9064   Anisotropy =    40.7520

     20  C    Isotropic =   212.2589   Anisotropy =    22.1737

     21  C    Isotropic =   208.1193   Anisotropy =    12.4769

     22  C    Isotropic =    97.0629   Anisotropy =    98.8504

     23  O    Isotropic =  -136.4200   Anisotropy =   887.3508

     24  O    Isotropic =   285.2098   Anisotropy =   138.1117

     25  C    Isotropic =   197.4706   Anisotropy =    57.8031

     26  C    Isotropic =   209.8914   Anisotropy =    41.3788

     27  C    Isotropic =   206.5630   Anisotropy =    14.9316

     28  C    Isotropic =   118.9911   Anisotropy =   158.6968

     29  C    Isotropic =   123.5825   Anisotropy =   155.0892

     30  C    Isotropic =   119.1635   Anisotropy =   150.7387

     31  C    Isotropic =   133.8876   Anisotropy =   142.1868

     32  C    Isotropic =   109.6875   Anisotropy =   126.0843

     33  C    Isotropic =   118.8408   Anisotropy =   138.1288

     34  N    Isotropic =   274.5964   Anisotropy =    82.2069

     35  C    Isotropic =   196.6299   Anisotropy =    15.2383

     36  C    Isotropic =   181.5851   Anisotropy =    43.2206

     37  C    Isotropic =   179.5235   Anisotropy =    50.8778

     38  C    Isotropic =   213.8220   Anisotropy =    19.8960

     39  C    Isotropic =   212.1328   Anisotropy =    22.4197

     40  C    Isotropic =   211.7804   Anisotropy =    10.1305

     41  N    Isotropic =   229.7311   Anisotropy =    30.6395

     42  C    Isotropic =   191.3125   Anisotropy =    54.8965

     43  C    Isotropic =   220.7834   Anisotropy =     7.6977

     44  C    Isotropic =   214.2174   Anisotropy =    26.1276

     45  C    Isotropic =   210.8370   Anisotropy =    37.7577

     46  C    Isotropic =   187.9860   Anisotropy =    58.2368

     47  C    Isotropic =   210.5964   Anisotropy =    24.2896

     48  C    Isotropic =   208.9943   Anisotropy =    10.0200

     49  C    Isotropic =    96.6259   Anisotropy =    98.2773

     50  O    Isotropic =  -131.1382   Anisotropy =   885.1769

     51  O    Isotropic =   283.7395   Anisotropy =   139.2197

     52  C    Isotropic =   197.2307   Anisotropy =    57.4716

     53  C    Isotropic =   209.9709   Anisotropy =    42.4238

     54  O    Isotropic =    15.8844   Anisotropy =   491.7520

     55  H    Isotropic =    25.6454   Anisotropy =    12.1510

     56  H    Isotropic =    25.8988   Anisotropy =     6.8356

     57  H    Isotropic =    26.6447   Anisotropy =     7.7467

     58  H    Isotropic =    31.5267   Anisotropy =    12.9950

     59  H    Isotropic =    33.4170   Anisotropy =     8.7226

     60  H    Isotropic =    32.3504   Anisotropy =    12.5850

     61  H    Isotropic =    32.4779   Anisotropy =    13.8588

     62  H    Isotropic =    32.6531   Anisotropy =    17.7727

     63  H    Isotropic =    32.0172   Anisotropy =    11.9507

     64  H    Isotropic =    31.7830   Anisotropy =    15.0527

     65  H    Isotropic =    31.8975   Anisotropy =    14.0822

     66  H    Isotropic =    32.3755   Anisotropy =    15.8073

     67  H    Isotropic =    32.1090   Anisotropy =    15.6355

     68  H    Isotropic =    32.3832   Anisotropy =    13.9236

     69  H    Isotropic =    32.4655   Anisotropy =    12.9594

     70  H    Isotropic =    32.9442   Anisotropy =    11.4483

     71  H    Isotropic =    32.1453   Anisotropy =    10.7691

     72  H    Isotropic =    31.9454   Anisotropy =    16.2248

     73  H    Isotropic =    32.0845   Anisotropy =    14.8795

     74  H    Isotropic =    30.3182   Anisotropy =    11.0128

     75  H    Isotropic =    31.3321   Anisotropy =    12.4928

     76  H    Isotropic =    30.5820   Anisotropy =     8.0507

     77  H    Isotropic =    30.5411   Anisotropy =    11.9989

     78  H    Isotropic =    30.5196   Anisotropy =    12.1610

     79  H    Isotropic =    32.0220   Anisotropy =    10.5672

     80  H    Isotropic =    30.7641   Anisotropy =    14.9575

     81  H    Isotropic =    30.9229   Anisotropy =    11.1384

     82  H    Isotropic =    29.9925   Anisotropy =     7.9544

     83  H    Isotropic =    29.9329   Anisotropy =    12.5296

     84  H    Isotropic =    25.0747   Anisotropy =    14.0150

     85  H    Isotropic =    25.6936   Anisotropy =     6.6054

     86  H    Isotropic =    26.6344   Anisotropy =     7.9350

     87  H    Isotropic =    30.5397   Anisotropy =     6.6397

     88  H    Isotropic =    32.1616   Anisotropy =    14.0925

     89  H    Isotropic =    32.8769   Anisotropy =     8.7492

     90  H    Isotropic =    32.1340   Anisotropy =    15.4505

     91  H    Isotropic =    32.3774   Anisotropy =    12.7341

     92  H    Isotropic =    30.5061   Anisotropy =    13.5821

     93  H    Isotropic =    31.8698   Anisotropy =     8.1458

     94  H    Isotropic =    32.1551   Anisotropy =    17.4885

     95  H    Isotropic =    31.6107   Anisotropy =    11.4751

     96  H    Isotropic =    32.3894   Anisotropy =    13.5602

     97  H    Isotropic =    32.1673   Anisotropy =    14.2030

     98  H    Isotropic =    32.3041   Anisotropy =    14.8044

     99  H    Isotropic =    32.9627   Anisotropy =    10.0802

    100  H    Isotropic =    30.8214   Anisotropy =    14.9787

    101  H    Isotropic =    31.5093   Anisotropy =     8.5710

    102  H    Isotropic =    31.7856   Anisotropy =     8.8154

    103  H    Isotropic =    32.0761   Anisotropy =    15.0647

    104  H    Isotropic =    31.1323   Anisotropy =    13.0838

    105  H    Isotropic =    30.5943   Anisotropy =    11.6455

    106  H    Isotropic =    30.5332   Anisotropy =    12.3087

    107  H    Isotropic =    30.6985   Anisotropy =     7.3137

    108  H    Isotropic =    30.9665   Anisotropy =    11.0978

    109  H    Isotropic =    30.7426   Anisotropy =    14.5025

    110  H    Isotropic =    31.9157   Anisotropy =    12.1124

 The electronic state is 1-A.
 Alpha  occ. eigenvalues --  -20.31548 -20.29180 -20.25496 -20.23159 -19.92095
 Alpha  occ. eigenvalues --  -15.48232 -15.34104 -15.32392 -15.28539 -11.17521
 Alpha  occ. eigenvalues --  -11.15010 -11.11225 -11.10478 -11.09435 -11.09410
 Alpha  occ. eigenvalues --  -11.09341 -11.08610 -11.08401 -11.08028 -11.07541
 Alpha  occ. eigenvalues --  -11.07519 -11.07224 -11.06874 -11.06051 -11.06021
 Alpha  occ. eigenvalues --  -11.05697 -11.05553 -11.05384 -11.05274 -11.05159
 Alpha  occ. eigenvalues --  -11.04987 -11.04962 -11.04799 -11.04727 -11.04503
 Alpha  occ. eigenvalues --  -11.04139 -11.03863 -11.03601 -11.02447 -11.02446
 Alpha  occ. eigenvalues --  -11.02411 -11.02273 -11.02215 -11.02164 -11.01942
 Alpha  occ. eigenvalues --  -11.01712 -11.01702 -11.01499 -11.01423 -11.01214
 Alpha  occ. eigenvalues --  -11.00845 -11.00782 -11.00518 -11.00456  -1.38771
 Alpha  occ. eigenvalues --   -1.36462  -1.28667  -1.28386  -1.26114  -1.21594
 Alpha  occ. eigenvalues --   -1.20199  -1.17743  -1.12040  -1.08738  -1.07779
 Alpha  occ. eigenvalues --   -1.06932  -1.06255  -1.03715  -1.03231  -1.00746
 Alpha  occ. eigenvalues --   -0.99653  -0.98857  -0.97778  -0.97079  -0.96676
 Alpha  occ. eigenvalues --   -0.95028  -0.94985  -0.93504  -0.92777  -0.92727
 Alpha  occ. eigenvalues --   -0.92235  -0.90723  -0.90178  -0.89232  -0.87576
 Alpha  occ. eigenvalues --   -0.86044  -0.84116  -0.82946  -0.82150  -0.81160
 Alpha  occ. eigenvalues --   -0.80084  -0.78701  -0.78291  -0.77817  -0.75774
 Alpha  occ. eigenvalues --   -0.75521  -0.74692  -0.73239  -0.72763  -0.72089
 Alpha  occ. eigenvalues --   -0.71314  -0.69820  -0.69177  -0.68168  -0.67097
 Alpha  occ. eigenvalues --   -0.65721  -0.65205  -0.64034  -0.63176  -0.62776
 Alpha  occ. eigenvalues --   -0.62254  -0.62141  -0.61414  -0.61197  -0.60936
 Alpha  occ. eigenvalues --   -0.59944  -0.59722  -0.59262  -0.58688  -0.58523
 Alpha  occ. eigenvalues --   -0.58503  -0.57850  -0.57452  -0.57022  -0.56703
 Alpha  occ. eigenvalues --   -0.56556  -0.56299  -0.56143  -0.55619  -0.55532
 Alpha  occ. eigenvalues --   -0.55415  -0.54941  -0.54678  -0.54236  -0.53778
 Alpha  occ. eigenvalues --   -0.53218  -0.52865  -0.52585  -0.52228  -0.51921
 Alpha  occ. eigenvalues --   -0.51821  -0.51337  -0.51181  -0.50383  -0.50140
 Alpha  occ. eigenvalues --   -0.49418  -0.49315  -0.49009  -0.48977  -0.48650
 Alpha  occ. eigenvalues --   -0.48329  -0.47949  -0.47801  -0.47062  -0.46850
 Alpha  occ. eigenvalues --   -0.46374  -0.45921  -0.45618  -0.45390  -0.45126
 Alpha  occ. eigenvalues --   -0.44888  -0.44692  -0.44424  -0.43661  -0.43365
 Alpha  occ. eigenvalues --   -0.43295  -0.42919  -0.42473  -0.42335  -0.41974
 Alpha  occ. eigenvalues --   -0.41873  -0.41490  -0.40859  -0.40494  -0.40013
 Alpha  occ. eigenvalues --   -0.39904  -0.39752  -0.39268  -0.38486  -0.37897
 Alpha  occ. eigenvalues --   -0.36310  -0.35905  -0.35769  -0.34902  -0.34385
 Alpha  occ. eigenvalues --   -0.34150  -0.32799  -0.32571  -0.31876  -0.30644
 Alpha  occ. eigenvalues --   -0.26859  -0.25948  -0.25808  -0.21370  -0.19714
 Alpha  occ. eigenvalues --   -0.15892  -0.15808
 Alpha virt. eigenvalues --    0.26910   0.27416   0.28385   0.29505   0.29895
 Alpha virt. eigenvalues --    0.32050   0.45865   0.46885   0.48451   0.49733
 Alpha virt. eigenvalues --    0.49993   0.50199   0.50599   0.52114   0.52466

 Mulliken charges:
               1
     1  C   -0.075358
     2  C    0.000291
     3  C   -0.063697
     4  C   -0.090762
     5  C    0.089008
     6  C   -0.011432
     7  N   -0.282269
     8  C    0.014949
     9  C    0.129267
    10  C    0.035578
    11  C   -0.114439
    12  C   -0.107905
    13  C    0.042935
    14  N   -0.291980
    15  C   -0.014524
    16  C   -0.093639
    17  C   -0.101084
    18  C   -0.098938
    19  C   -0.014343
    20  C   -0.104332
    21  C   -0.063768
    22  C    0.317761
    23  O   -0.274581
    24  O   -0.256305
    25  C   -0.055271
    26  C   -0.078955
    27  C   -0.109185
    28  C    0.002315
    29  C   -0.073924
    30  C   -0.061160
    31  C   -0.090125
    32  C    0.086337
    33  C   -0.013057
    34  N   -0.286605
    35  C    0.017295
    36  C    0.128410
    37  C    0.039670
    38  C   -0.116406
    39  C   -0.103632
    40  C    0.027595
    41  N   -0.080663
    42  C   -0.008953
    43  C   -0.103505
    44  C   -0.104560
    45  C   -0.106335
    46  C   -0.016414
    47  C   -0.108950
    48  C   -0.068061
    49  C    0.320226
    50  O   -0.279250
    51  O   -0.254363
    52  C   -0.055744
    53  C   -0.079797
    54  O   -0.458247
    55  H    0.063601
    56  H    0.053575
    57  H    0.057160
    58  H    0.063334
    59  H    0.053518
    60  H    0.046530
    61  H    0.044745
    62  H    0.052364
    63  H    0.051981
    64  H    0.055579
    65  H    0.052040
    66  H    0.046786
    67  H    0.055553
    68  H    0.045746
    69  H    0.062759
    70  H    0.055640
    71  H    0.041063
    72  H    0.059038
    73  H    0.045606
    74  H    0.079443
    75  H    0.061342
    76  H    0.073684
    77  H    0.075247
    78  H    0.070537
    79  H    0.053587
    80  H    0.070012
    81  H    0.075219
    82  H    0.058941
    83  H    0.056188
    84  H    0.081766
    85  H    0.056507
    86  H    0.058079
    87  H    0.089058
    88  H    0.052758
    89  H    0.058878
    90  H    0.052504
    91  H    0.054467
    92  H    0.092143
    93  H    0.060341
    94  H    0.065004
    95  H    0.073740
    96  H    0.053494
    97  H    0.058409
    98  H    0.080034
    99  H    0.070949
   100  H    0.088342
   101  H    0.073606
   102  H    0.062509
   103  H    0.055802
   104  H    0.067823
   105  H    0.073418
   106  H    0.079268
   107  H    0.075720
   108  H    0.075724
   109  H    0.073467
   110  H    0.056250
 Sum of Mulliken charges =  -0.00000

 Dipole moment (field-independent basis, Debye):
    X=             -6.7233    Y=              0.3852    Z=              1.5800  Tot=              6.9172
 Quadrupole moment (field-independent basis, Debye-Ang):
   XX=           -279.1530   YY=           -296.5283   ZZ=           -292.7484
   XY=             13.3666   XZ=              6.3417   YZ=              3.5390

 Summary of Natural Population Analysis:

                                       Natural Population
                Natural  -----------------------------------------------
    Atom  No    Charge         Core      Valence    Rydberg      Total
 -----------------------------------------------------------------------
      C    1   -0.05839      1.99992     4.05847    0.00000     6.05839
      C    2    0.01409      1.99990     3.98600    0.00000     5.98591
      C    3   -0.03579      1.99994     4.03585    0.00000     6.03579
      C    4   -0.08795      1.99993     4.08801    0.00000     6.08795
      C    5    0.11314      1.99985     3.88701    0.00000     5.88686
      C    6   -0.02041      1.99990     4.02051    0.00000     6.02041
      N    7   -0.27124      1.99998     5.27126    0.00000     7.27124
      C    8    0.01441      1.99996     3.98563    0.00000     5.98559
      C    9    0.17367      1.99996     3.82637    0.00000     5.82633
      C   10    0.06672      1.99994     3.93334    0.00000     5.93328
      C   11   -0.08381      1.99993     4.08387    0.00000     6.08381
      C   12   -0.07831      1.99996     4.07835    0.00000     6.07831
      C   13    0.06473      1.99998     3.93529    0.00000     5.93527
      N   14   -0.28100      1.99999     5.28101    0.00000     7.28100
      C   15    0.03982      1.99994     3.96024    0.00000     5.96018
      C   16   -0.05619      1.99996     4.05623    0.00000     6.05619
      C   17   -0.06536      1.99995     4.06541    0.00000     6.06536
      C   18   -0.06550      1.99994     4.06556    0.00000     6.06550
      C   19    0.03912      1.99995     3.96093    0.00000     5.96088
      C   20   -0.06651      1.99992     4.06659    0.00000     6.06651
      C   21   -0.07984      1.99994     4.07990    0.00000     6.07984
      C   22    0.40020      1.99991     3.59989    0.00000     5.59980
      O   23   -0.30857      1.99999     6.30858    0.00000     8.30857
      O   24   -0.26805      1.99999     6.26806    0.00000     8.26805
      C   25    0.03509      1.99984     3.96507    0.00000     5.96491
      C   26   -0.01688      1.99992     4.01695    0.00000     6.01688
      C   27   -0.08589      1.99995     4.08593    0.00000     6.08589
      C   28    0.01725      1.99990     3.98284    0.00000     5.98275
      C   29   -0.05518      1.99992     4.05526    0.00000     6.05518
      C   30   -0.03255      1.99995     4.03260    0.00000     6.03255
      C   31   -0.08738      1.99993     4.08745    0.00000     6.08738
      C   32    0.10933      1.99985     3.89082    0.00000     5.89067
      C   33   -0.02592      1.99990     4.02602    0.00000     6.02592
      N   34   -0.27496      1.99998     5.27498    0.00000     7.27496
      C   35    0.01724      1.99996     3.98280    0.00000     5.98276
      C   36    0.17164      1.99996     3.82840    0.00000     5.82836
      C   37    0.07155      1.99991     3.92854    0.00000     5.92845
      C   38   -0.08849      1.99994     4.08855    0.00000     6.08849
      C   39   -0.07195      1.99996     4.07199    0.00000     6.07195
      C   40    0.04976      1.99998     3.95026    0.00000     5.95024
      N   41    0.03294      1.99999     4.96707    0.00000     6.96706
      C   42    0.04395      1.99990     3.95615    0.00000     5.95605
      C   43   -0.07409      1.99997     4.07412    0.00000     6.07409
      C   44   -0.07081      1.99995     4.07086    0.00000     6.07081
      C   45   -0.08150      1.99995     4.08155    0.00000     6.08150
      C   46    0.03266      1.99992     3.96743    0.00000     5.96734
      C   47   -0.07151      1.99993     4.07159    0.00000     6.07151
      C   48   -0.08591      1.99994     4.08597    0.00000     6.08591
      C   49    0.40296      1.99991     3.59713    0.00000     5.59704
      O   50   -0.31345      1.99998     6.31346    0.00000     8.31345
      O   51   -0.26567      1.99999     6.26568    0.00000     8.26567
      C   52    0.03482      1.99984     3.96535    0.00000     5.96518
      C   53   -0.01723      1.99992     4.01731    0.00000     6.01723
      O   54   -0.51025      2.00000     6.51025    0.00000     8.51025
      H   55    0.03806      0.00000     0.96194    0.00000     0.96194
      H   56    0.02663      0.00000     0.97337    0.00000     0.97337
      H   57    0.03316      0.00000     0.96684    0.00000     0.96684
      H   58    0.03093      0.00000     0.96907    0.00000     0.96907
      H   59    0.03057      0.00000     0.96943    0.00000     0.96943
      H   60    0.02466      0.00000     0.97534    0.00000     0.97534
      H   61    0.02478      0.00000     0.97522    0.00000     0.97522
      H   62    0.03165      0.00000     0.96835    0.00000     0.96835
      H   63    0.02315      0.00000     0.97685    0.00000     0.97685
      H   64    0.02988      0.00000     0.97012    0.00000     0.97012
      H   65    0.03017      0.00000     0.96983    0.00000     0.96983
      H   66    0.02573      0.00000     0.97427    0.00000     0.97427
      H   67    0.03322      0.00000     0.96678    0.00000     0.96678
      H   68    0.02457      0.00000     0.97543    0.00000     0.97543
      H   69    0.03864      0.00000     0.96136    0.00000     0.96136
      H   70    0.03379      0.00000     0.96621    0.00000     0.96621
      H   71    0.01339      0.00000     0.98661    0.00000     0.98661
      H   72    0.03291      0.00000     0.96709    0.00000     0.96709
      H   73    0.02283      0.00000     0.97717    0.00000     0.97717
      H   74    0.05288      0.00000     0.94712    0.00000     0.94712
      H   75    0.03837      0.00000     0.96163    0.00000     0.96163
      H   76    0.04234      0.00000     0.95766    0.00000     0.95766
      H   77    0.04438      0.00000     0.95562    0.00000     0.95562
      H   78    0.03915      0.00000     0.96085    0.00000     0.96085
      H   79    0.02834      0.00000     0.97166    0.00000     0.97166
      H   80    0.04590      0.00000     0.95410    0.00000     0.95410
      H   81    0.05097      0.00000     0.94903    0.00000     0.94903
      H   82    0.04028      0.00000     0.95972    0.00000     0.95972
      H   83    0.03718      0.00000     0.96282    0.00000     0.96282
      H   84    0.05394      0.00000     0.94606    0.00000     0.94606
      H   85    0.02909      0.00000     0.97091    0.00000     0.97091
      H   86    0.03400      0.00000     0.96600    0.00000     0.96600
      H   87    0.05306      0.00000     0.94694    0.00000     0.94694
      H   88    0.03089      0.00000     0.96911    0.00000     0.96911
      H   89    0.03594      0.00000     0.96406    0.00000     0.96406
      H   90    0.03131      0.00000     0.96869    0.00000     0.96869
      H   91    0.03294      0.00000     0.96706    0.00000     0.96706
      H   92    0.06013      0.00000     0.93987    0.00000     0.93987
      H   93    0.03002      0.00000     0.96998    0.00000     0.96998
      H   94    0.04484      0.00000     0.95516    0.00000     0.95516
      H   95    0.05169      0.00000     0.94831    0.00000     0.94831
      H   96    0.03207      0.00000     0.96793    0.00000     0.96793
      H   97    0.03672      0.00000     0.96328    0.00000     0.96328
      H   98    0.05752      0.00000     0.94248    0.00000     0.94248
      H   99    0.04904      0.00000     0.95096    0.00000     0.95096
      H  100    0.05791      0.00000     0.94209    0.00000     0.94209
      H  101    0.04171      0.00000     0.95829    0.00000     0.95829
      H  102    0.03758      0.00000     0.96242    0.00000     0.96242
      H  103    0.03299      0.00000     0.96701    0.00000     0.96701
      H  104    0.04462      0.00000     0.95538    0.00000     0.95538
      H  105    0.04174      0.00000     0.95826    0.00000     0.95826
      H  106    0.04798      0.00000     0.95202    0.00000     0.95202
      H  107    0.04408      0.00000     0.95592    0.00000     0.95592
      H  108    0.05131      0.00000     0.94869    0.00000     0.94869
      H  109    0.04900      0.00000     0.95100    0.00000     0.95100
      H  110    0.03078      0.00000     0.96922    0.00000     0.96922
 =======================================================================
   * Total *   -0.00000    107.99667   286.00333    0.00000   394.00000

 Normal termination of Gaussian 16 at Thu May 30 09:02:51 2024.
