 Gaussian 16, Revision B.01,
 Gaussian 16:  ES64L-G16RevB.01 20-Dec-2017

 ----------------------------------------------
 # nmr=giao hf/sto-3g pop=nbo geom=connectivity
 ----------------------------------------------

 ------------------
 pleiokomenine_C_1a
 ------------------
 Symbolic Z-matrix:
 Charge =  0 Multiplicity = 1

                         Standard orientation:
 ---------------------------------------------------------------------
 Center     Atomic      Atomic             Coordinates (Angstroms)
 Number     Number       Type             X           Y           Z
 ---------------------------------------------------------------------
      1          6           0       -1.813340   -1.731917   -1.615081
      2          6           0       -1.072804   -2.916520   -1.515074
      3          6           0       -1.361801   -3.829450   -0.479257
      4          6           0       -2.360380   -3.562814    0.467363
      5          6           0       -3.052498   -2.366283    0.392401
      6          6           0       -2.784531   -1.474923   -0.660550
      7          7           0       -4.029122   -1.856975    1.291965
      8          6           0       -3.715295   -0.294318   -0.550526
      9          6           0       -3.991665   -0.398066    0.999487
     10          6           0       -3.217278    1.120353   -0.882600
     11          6           0       -2.773243    0.259998    1.784689
     12          6           0       -2.632439    1.748895    1.446276
     13          6           0       -3.589274    2.093339    0.288491
     14          7           0       -3.820534    1.425683   -2.183643
     15          6           0       -3.772643    2.829158   -2.564389
     16          6           0       -4.175114    3.813116   -1.466219
     17          6           0       -3.409145    3.547481   -0.170183
     18          6           0       -4.866087   -0.550047   -1.553780
     19          6           0       -5.119175    0.779178   -2.253321
     20          6           0       -5.029591    1.867986    0.863190
     21          6           0       -5.212600    0.433716    1.431530
     22          6           0       -6.583004   -0.140195    1.117353
     23          8           0       -7.355023    0.298160    0.273428
     24          8           0       -6.879772   -1.168396    1.961497
     25          6           0       -8.138860   -1.789664    1.706001
     26          6           0       -3.977938   -2.351357    2.658830
     27          6           0        0.071062   -3.176053   -2.471637
     28          6           0        1.427607   -2.815080   -1.899378
     29          6           0        1.662511   -1.530595   -1.386858
     30          6           0        2.470130   -3.763287   -1.879602
     31          6           0        3.732614   -3.445793   -1.359719
     32          6           0        3.952252   -2.175492   -0.854569
     33          6           0        2.902283   -1.243197   -0.838229
     34          7           0        5.158086   -1.637846   -0.328349
     35          6           0        3.369282   -0.004887   -0.116607
     36          6           0        4.915287   -0.175624   -0.383016
     37          6           0        2.921849    1.374233   -0.595494
     38          6           0        5.235984    0.370715   -1.840611
     39          6           0        4.921001    1.872555   -1.947453
     40          6           0        4.152638    2.322668   -0.682073
     41          7           0        1.773483    1.841416    0.310741
     42          6           0        2.128591    3.062339    1.122752
     43          6           0        2.701152    4.199220    0.287027
     44          6           0        3.672133    3.769056   -0.813909
     45          6           0        2.825770   -0.072480    1.317514
     46          6           0        1.502004    0.666016    1.225342
     47          6           0        5.175366    2.144531    0.495602
     48          6           0        5.774256    0.706996    0.540533
     49          6           0        6.001685    0.206705    1.959436
     50          8           0        5.530523    0.720198    2.966668
     51          8           0        6.875459   -0.837097    1.971790
     52          6           0        7.126705   -1.379172    3.268384
     53          6           0        6.395147   -2.214462   -0.837576
     54          8           0        0.655276    2.118548   -0.434027
     55          1           0       -1.623752   -1.012005   -2.407088
     56          1           0       -0.789290   -4.750606   -0.395237
     57          1           0       -2.555936   -4.279908    1.255713
     58          1           0       -2.127530    1.131204   -1.018481
     59          1           0       -2.910916    0.155011    2.868598
     60          1           0       -1.825313   -0.245704    1.563259
     61          1           0       -2.859704    2.356868    2.331026
     62          1           0       -1.591488    1.970058    1.184051
     63          1           0       -2.741203    3.056479   -2.863904
     64          1           0       -4.380813    3.003277   -3.460379
     65          1           0       -3.967044    4.835384   -1.803685
     66          1           0       -5.255128    3.759747   -1.291237
     67          1           0       -2.344563    3.755261   -0.340172
     68          1           0       -3.743481    4.245179    0.606719
     69          1           0       -5.765656   -0.975633   -1.110193
     70          1           0       -4.562301   -1.269811   -2.328026
     71          1           0       -5.428825    0.617737   -3.291424
     72          1           0       -5.911336    1.347118   -1.763268
     73          1           0       -5.201047    2.578801    1.684564
     74          1           0       -5.794438    2.119873    0.128453
     75          1           0       -5.210773    0.533342    2.528056
     76          1           0       -8.177990   -2.175901    0.682477
     77          1           0       -8.247535   -2.630751    2.396207
     78          1           0       -8.955882   -1.084575    1.887145
     79          1           0       -2.972512   -2.275043    3.088059
     80          1           0       -4.297081   -3.398462    2.698269
     81          1           0       -4.659176   -1.786044    3.301953
     82          1           0        0.046708   -4.234483   -2.761896
     83          1           0       -0.076226   -2.612819   -3.402289
     84          1           0        0.877659   -0.778066   -1.394569
     85          1           0        2.303106   -4.763695   -2.273379
     86          1           0        4.514658   -4.196295   -1.360429
     87          1           0        2.455800    1.302054   -1.588923
     88          1           0        6.291818    0.210717   -2.093712
     89          1           0        4.667813   -0.168841   -2.608631
     90          1           0        4.337742    2.059501   -2.857764
     91          1           0        5.851867    2.443464   -2.056823
     92          1           0        1.200644    3.381256    1.613860
     93          1           0        2.814025    2.747275    1.911458
     94          1           0        1.879244    4.759882   -0.175650
     95          1           0        3.200495    4.907361    0.959493
     96          1           0        3.159027    3.888307   -1.778100
     97          1           0        4.522383    4.461442   -0.846714
     98          1           0        2.693985   -1.086821    1.709180
     99          1           0        3.442117    0.471849    2.026218
    100          1           0        1.136509    1.038593    2.187025
    101          1           0        0.717403    0.063892    0.757219
    102          1           0        4.736553    2.421181    1.453519
    103          1           0        6.005203    2.852407    0.359074
    104          1           0        6.790778    0.783541    0.124263
    105          1           0        7.624174   -0.638049    3.901449
    106          1           0        7.792098   -2.239158    3.152523
    107          1           0        6.195212   -1.722494    3.729571
    108          1           0        7.260233   -1.629210   -0.511240
    109          1           0        6.531296   -3.229793   -0.450127
    110          1           0        6.411678   -2.250605   -1.932893
 ---------------------------------------------------------------------

 SCF Done:  E(RHF) =  -2300.22215342     A.U. after   16 cycles

      1  C    Isotropic =   123.3132   Anisotropy =   149.4775

      2  C    Isotropic =   120.5039   Anisotropy =   160.3864

      3  C    Isotropic =   119.7575   Anisotropy =   155.4583

      4  C    Isotropic =   133.9881   Anisotropy =   143.8181

      5  C    Isotropic =   108.3791   Anisotropy =   129.4407

      6  C    Isotropic =   116.6777   Anisotropy =   143.6604

      7  N    Isotropic =   273.2694   Anisotropy =    81.1173

      8  C    Isotropic =   195.8702   Anisotropy =    11.9899

      9  C    Isotropic =   180.6842   Anisotropy =    44.5007

     10  C    Isotropic =   190.1873   Anisotropy =    30.0661

     11  C    Isotropic =   213.6360   Anisotropy =    20.3332

     12  C    Isotropic =   213.4810   Anisotropy =    20.4595

     13  C    Isotropic =   213.3759   Anisotropy =     9.3163

     14  N    Isotropic =   303.1668   Anisotropy =    56.9319

     15  C    Isotropic =   205.1920   Anisotropy =    34.0077

     16  C    Isotropic =   224.0134   Anisotropy =     8.4235

     17  C    Isotropic =   215.3667   Anisotropy =    19.1137

     18  C    Isotropic =   210.5536   Anisotropy =    37.4058

     19  C    Isotropic =   199.9679   Anisotropy =    42.6008

     20  C    Isotropic =   212.0451   Anisotropy =    22.0272

     21  C    Isotropic =   208.9036   Anisotropy =    11.7474

     22  C    Isotropic =    96.2654   Anisotropy =    99.0626

     23  O    Isotropic =  -134.6070   Anisotropy =   886.7881

     24  O    Isotropic =   284.4773   Anisotropy =   139.3671

     25  C    Isotropic =   197.4401   Anisotropy =    57.8745

     26  C    Isotropic =   209.9298   Anisotropy =    40.5878

     27  C    Isotropic =   206.3064   Anisotropy =    17.6035

     28  C    Isotropic =   119.3564   Anisotropy =   158.3298

     29  C    Isotropic =   124.0056   Anisotropy =   153.7888

     30  C    Isotropic =   118.6271   Anisotropy =   149.7638

     31  C    Isotropic =   133.6228   Anisotropy =   142.1464

     32  C    Isotropic =   109.1579   Anisotropy =   125.8644

     33  C    Isotropic =   121.3453   Anisotropy =   133.8898

     34  N    Isotropic =   274.2627   Anisotropy =    81.4392

     35  C    Isotropic =   197.7049   Anisotropy =    16.3100

     36  C    Isotropic =   180.7326   Anisotropy =    45.0265

     37  C    Isotropic =   175.8823   Anisotropy =    57.7709

     38  C    Isotropic =   213.5413   Anisotropy =    18.8641

     39  C    Isotropic =   211.9127   Anisotropy =    22.5278

     40  C    Isotropic =   211.0373   Anisotropy =     8.9884

     41  N    Isotropic =   227.5019   Anisotropy =    57.7104

     42  C    Isotropic =   196.7282   Anisotropy =    47.1667

     43  C    Isotropic =   221.7435   Anisotropy =    10.5029

     44  C    Isotropic =   217.8101   Anisotropy =    20.6173

     45  C    Isotropic =   214.1997   Anisotropy =    27.9445

     46  C    Isotropic =   187.3503   Anisotropy =    58.9112

     47  C    Isotropic =   212.1518   Anisotropy =    23.5826

     48  C    Isotropic =   208.4724   Anisotropy =    10.4981

     49  C    Isotropic =    96.1204   Anisotropy =    97.8137

     50  O    Isotropic =  -131.0778   Anisotropy =   882.2072

     51  O    Isotropic =   282.7311   Anisotropy =   139.1727

     52  C    Isotropic =   197.2366   Anisotropy =    57.7500

     53  C    Isotropic =   209.5277   Anisotropy =    42.4047

     54  O    Isotropic =    32.3487   Anisotropy =   453.0577

     55  H    Isotropic =    25.1979   Anisotropy =    12.7751

     56  H    Isotropic =    26.1094   Anisotropy =     6.9901

     57  H    Isotropic =    26.7426   Anisotropy =     7.6778

     58  H    Isotropic =    30.7833   Anisotropy =    13.6078

     59  H    Isotropic =    32.3199   Anisotropy =    11.9187

     60  H    Isotropic =    33.0268   Anisotropy =    11.7362

     61  H    Isotropic =    32.4706   Anisotropy =    13.4388

     62  H    Isotropic =    31.7858   Anisotropy =    19.0823

     63  H    Isotropic =    31.5613   Anisotropy =    13.8525

     64  H    Isotropic =    31.8145   Anisotropy =    15.8939

     65  H    Isotropic =    32.6176   Anisotropy =    17.4837

     66  H    Isotropic =    32.5466   Anisotropy =    11.9567

     67  H    Isotropic =    32.1778   Anisotropy =    14.0044

     68  H    Isotropic =    32.5200   Anisotropy =    13.8489

     69  H    Isotropic =    32.9031   Anisotropy =    11.6249

     70  H    Isotropic =    32.2574   Anisotropy =    11.8236

     71  H    Isotropic =    31.8143   Anisotropy =    16.5417

     72  H    Isotropic =    31.8932   Anisotropy =     9.8702

     73  H    Isotropic =    32.2207   Anisotropy =    14.3143

     74  H    Isotropic =    31.3285   Anisotropy =    10.4918

     75  H    Isotropic =    31.2273   Anisotropy =    11.9113

     76  H    Isotropic =    30.6288   Anisotropy =     8.1036

     77  H    Isotropic =    30.5704   Anisotropy =    12.0809

     78  H    Isotropic =    30.5732   Anisotropy =    11.8812

     79  H    Isotropic =    32.0484   Anisotropy =    10.4065

     80  H    Isotropic =    30.8246   Anisotropy =    14.7014

     81  H    Isotropic =    30.9322   Anisotropy =    10.7886

     82  H    Isotropic =    29.8330   Anisotropy =    12.6981

     83  H    Isotropic =    29.9734   Anisotropy =     8.3646

     84  H    Isotropic =    25.8438   Anisotropy =    15.5915

     85  H    Isotropic =    25.5687   Anisotropy =     6.6934

     86  H    Isotropic =    26.5084   Anisotropy =     7.8936

     87  H    Isotropic =    30.5667   Anisotropy =     6.7206

     88  H    Isotropic =    32.1049   Anisotropy =    14.2178

     89  H    Isotropic =    32.7692   Anisotropy =     8.3570

     90  H    Isotropic =    32.2732   Anisotropy =    13.1536

     91  H    Isotropic =    32.1561   Anisotropy =    15.5399

     92  H    Isotropic =    30.9795   Anisotropy =    12.7687

     93  H    Isotropic =    31.8634   Anisotropy =     7.1796

     94  H    Isotropic =    31.2585   Anisotropy =    15.3476

     95  H    Isotropic =    32.2164   Anisotropy =    16.1021

     96  H    Isotropic =    31.9249   Anisotropy =    12.8518

     97  H    Isotropic =    32.2916   Anisotropy =    15.3298

     98  H    Isotropic =    33.3092   Anisotropy =    10.1381

     99  H    Isotropic =    32.7689   Anisotropy =    11.4128

    100  H    Isotropic =    31.5725   Anisotropy =    11.1639

    101  H    Isotropic =    31.1855   Anisotropy =    17.6638

    102  H    Isotropic =    31.5963   Anisotropy =     8.7369

    103  H    Isotropic =    32.0874   Anisotropy =    15.1468

    104  H    Isotropic =    31.1916   Anisotropy =    12.8821

    105  H    Isotropic =    30.5813   Anisotropy =    11.7829

    106  H    Isotropic =    30.5164   Anisotropy =    12.1045

    107  H    Isotropic =    30.6685   Anisotropy =     7.6037

    108  H    Isotropic =    30.8949   Anisotropy =    11.0146

    109  H    Isotropic =    30.6760   Anisotropy =    14.5280

    110  H    Isotropic =    31.8678   Anisotropy =    11.9121

 The electronic state is 1-A.
 Alpha  occ. eigenvalues --  -20.31385 -20.29839 -20.25380 -20.23759 -19.92046
 Alpha  occ. eigenvalues --  -15.48498 -15.34203 -15.32647 -15.28950 -11.17402
 Alpha  occ. eigenvalues --  -11.15645 -11.11131 -11.10458 -11.09907 -11.09533
 Alpha  occ. eigenvalues --  -11.08933 -11.08728 -11.08371 -11.08280 -11.07393
 Alpha  occ. eigenvalues --  -11.07386 -11.07297 -11.07213 -11.06017 -11.05805
 Alpha  occ. eigenvalues --  -11.05721 -11.05605 -11.05384 -11.05286 -11.05232
 Alpha  occ. eigenvalues --  -11.05121 -11.05055 -11.04873 -11.04762 -11.04707
 Alpha  occ. eigenvalues --  -11.04411 -11.03968 -11.03716 -11.03112 -11.02688
 Alpha  occ. eigenvalues --  -11.02541 -11.02440 -11.02407 -11.02184 -11.02090
 Alpha  occ. eigenvalues --  -11.01991 -11.01974 -11.01936 -11.01588 -11.01229
 Alpha  occ. eigenvalues --  -11.00991 -11.00842 -11.00585 -11.00539  -1.38606
 Alpha  occ. eigenvalues --   -1.37055  -1.28463  -1.28320  -1.26827  -1.21653
 Alpha  occ. eigenvalues --   -1.20331  -1.17416  -1.12112  -1.09094  -1.08248
 Alpha  occ. eigenvalues --   -1.07215  -1.06238  -1.03858  -1.03495  -1.00813
 Alpha  occ. eigenvalues --   -0.99866  -0.98715  -0.97899  -0.97201  -0.96837
 Alpha  occ. eigenvalues --   -0.95525  -0.94527  -0.93672  -0.93126  -0.92633
 Alpha  occ. eigenvalues --   -0.92303  -0.90818  -0.90695  -0.89280  -0.87892
 Alpha  occ. eigenvalues --   -0.86441  -0.84291  -0.82629  -0.82336  -0.80842
 Alpha  occ. eigenvalues --   -0.80650  -0.79328  -0.78650  -0.78117  -0.76382
 Alpha  occ. eigenvalues --   -0.76050  -0.74898  -0.73203  -0.72943  -0.71863
 Alpha  occ. eigenvalues --   -0.70677  -0.69661  -0.69150  -0.68259  -0.66677
 Alpha  occ. eigenvalues --   -0.65570  -0.64842  -0.64740  -0.63991  -0.63658
 Alpha  occ. eigenvalues --   -0.62487  -0.61938  -0.61890  -0.61230  -0.60925
 Alpha  occ. eigenvalues --   -0.60021  -0.59706  -0.59658  -0.58817  -0.58628
 Alpha  occ. eigenvalues --   -0.58533  -0.58005  -0.57598  -0.57281  -0.56991
 Alpha  occ. eigenvalues --   -0.56898  -0.56392  -0.55898  -0.55820  -0.55510
 Alpha  occ. eigenvalues --   -0.55334  -0.55028  -0.54606  -0.53956  -0.53776
 Alpha  occ. eigenvalues --   -0.53425  -0.53071  -0.52498  -0.52399  -0.51914
 Alpha  occ. eigenvalues --   -0.51596  -0.51433  -0.50770  -0.50698  -0.50163
 Alpha  occ. eigenvalues --   -0.49852  -0.49706  -0.49402  -0.49048  -0.48568
 Alpha  occ. eigenvalues --   -0.48363  -0.47994  -0.47781  -0.47465  -0.47030
 Alpha  occ. eigenvalues --   -0.46758  -0.46625  -0.46083  -0.45396  -0.44996
 Alpha  occ. eigenvalues --   -0.44845  -0.44505  -0.44222  -0.44075  -0.43441
 Alpha  occ. eigenvalues --   -0.43055  -0.42893  -0.42615  -0.42495  -0.42203
 Alpha  occ. eigenvalues --   -0.41890  -0.41679  -0.41374  -0.40993  -0.40645
 Alpha  occ. eigenvalues --   -0.40161  -0.39510  -0.39410  -0.39185  -0.37940
 Alpha  occ. eigenvalues --   -0.37055  -0.36303  -0.35968  -0.35198  -0.34817
 Alpha  occ. eigenvalues --   -0.34004  -0.33341  -0.32700  -0.32524  -0.31189
 Alpha  occ. eigenvalues --   -0.27295  -0.26169  -0.24661  -0.21506  -0.19896
 Alpha  occ. eigenvalues --   -0.15673  -0.15413
 Alpha virt. eigenvalues --    0.26709   0.27523   0.28040   0.29493   0.29671
 Alpha virt. eigenvalues --    0.31318   0.46139   0.46707   0.48514   0.49555
 Alpha virt. eigenvalues --    0.49677   0.49910   0.50642   0.51346   0.52685

 Mulliken charges:
               1
     1  C   -0.073180
     2  C   -0.001608
     3  C   -0.063844
     4  C   -0.091061
     5  C    0.088510
     6  C   -0.010664
     7  N   -0.286371
     8  C    0.018352
     9  C    0.127383
    10  C    0.038042
    11  C   -0.114262
    12  C   -0.110154
    13  C    0.029958
    14  N   -0.291335
    15  C   -0.014386
    16  C   -0.107604
    17  C   -0.103122
    18  C   -0.104864
    19  C   -0.019079
    20  C   -0.110685
    21  C   -0.066391
    22  C    0.319258
    23  O   -0.277229
    24  O   -0.255936
    25  C   -0.055773
    26  C   -0.078951
    27  C   -0.109678
    28  C    0.002379
    29  C   -0.074642
    30  C   -0.060530
    31  C   -0.090317
    32  C    0.089474
    33  C   -0.020146
    34  N   -0.286044
    35  C    0.014278
    36  C    0.128734
    37  C    0.034037
    38  C   -0.115548
    39  C   -0.104073
    40  C    0.032586
    41  N   -0.074056
    42  C   -0.008119
    43  C   -0.101560
    44  C   -0.101892
    45  C   -0.119936
    46  C   -0.013948
    47  C   -0.111500
    48  C   -0.066077
    49  C    0.321322
    50  O   -0.279152
    51  O   -0.254369
    52  C   -0.055337
    53  C   -0.079059
    54  O   -0.457451
    55  H    0.068868
    56  H    0.054443
    57  H    0.056688
    58  H    0.074072
    59  H    0.046513
    60  H    0.052541
    61  H    0.042311
    62  H    0.068853
    63  H    0.058438
    64  H    0.057702
    65  H    0.051321
    66  H    0.047173
    67  H    0.061259
    68  H    0.046864
    69  H    0.061010
    70  H    0.061752
    71  H    0.055096
    72  H    0.050085
    73  H    0.049008
    74  H    0.066444
    75  H    0.063130
    76  H    0.074448
    77  H    0.075957
    78  H    0.071471
    79  H    0.053852
    80  H    0.070335
    81  H    0.075905
    82  H    0.057548
    83  H    0.061413
    84  H    0.076877
    85  H    0.057568
    86  H    0.058762
    87  H    0.092806
    88  H    0.053416
    89  H    0.057732
    90  H    0.057416
    91  H    0.051690
    92  H    0.086075
    93  H    0.061205
    94  H    0.075833
    95  H    0.059512
    96  H    0.064935
    97  H    0.055230
    98  H    0.072830
    99  H    0.070403
   100  H    0.073682
   101  H    0.093597
   102  H    0.065111
   103  H    0.056056
   104  H    0.066990
   105  H    0.073163
   106  H    0.078699
   107  H    0.075775
   108  H    0.076365
   109  H    0.072897
   110  H    0.056498
 Sum of Mulliken charges =  -0.00000

 Dipole moment (field-independent basis, Debye):
    X=              5.2899    Y=             -0.0893    Z=              2.6772  Tot=              5.9294
 Quadrupole moment (field-independent basis, Debye-Ang):
   XX=           -276.2015   YY=           -295.0856   ZZ=           -297.8163
   XY=              5.0722   XZ=            -11.0122   YZ=             -0.1606

 Summary of Natural Population Analysis:

                                       Natural Population
                Natural  -----------------------------------------------
    Atom  No    Charge         Core      Valence    Rydberg      Total
 -----------------------------------------------------------------------
      C    1   -0.05460      1.99993     4.05467    0.00000     6.05460
      C    2    0.01116      1.99990     3.98894    0.00000     5.98884
      C    3   -0.03534      1.99994     4.03540    0.00000     6.03534
      C    4   -0.08806      1.99993     4.08813    0.00000     6.08806
      C    5    0.11201      1.99985     3.88814    0.00000     5.88799
      C    6   -0.02130      1.99990     4.02139    0.00000     6.02130
      N    7   -0.27491      1.99998     5.27493    0.00000     7.27491
      C    8    0.01961      1.99996     3.98043    0.00000     5.98039
      C    9    0.17111      1.99996     3.82893    0.00000     5.82889
      C   10    0.07121      1.99993     3.92886    0.00000     5.92879
      C   11   -0.08374      1.99994     4.08380    0.00000     6.08374
      C   12   -0.07930      1.99996     4.07934    0.00000     6.07930
      C   13    0.05273      1.99998     3.94729    0.00000     5.94727
      N   14   -0.27972      1.99999     5.27973    0.00000     7.27972
      C   15    0.03902      1.99994     3.96104    0.00000     5.96098
      C   16   -0.07349      1.99997     4.07353    0.00000     6.07349
      C   17   -0.06984      1.99996     4.06988    0.00000     6.06984
      C   18   -0.07446      1.99995     4.07452    0.00000     6.07446
      C   19    0.03399      1.99994     3.96606    0.00000     5.96601
      C   20   -0.07394      1.99993     4.07402    0.00000     6.07394
      C   21   -0.08420      1.99994     4.08425    0.00000     6.08420
      C   22    0.40285      1.99991     3.59724    0.00000     5.59715
      O   23   -0.31140      1.99999     6.31141    0.00000     8.31140
      O   24   -0.26759      1.99999     6.26759    0.00000     8.26759
      C   25    0.03459      1.99984     3.96557    0.00000     5.96541
      C   26   -0.01639      1.99992     4.01647    0.00000     6.01639
      C   27   -0.08654      1.99996     4.08659    0.00000     6.08654
      C   28    0.01706      1.99990     3.98304    0.00000     5.98294
      C   29   -0.05471      1.99992     4.05478    0.00000     6.05471
      C   30   -0.03174      1.99994     4.03179    0.00000     6.03174
      C   31   -0.08792      1.99993     4.08798    0.00000     6.08792
      C   32    0.11339      1.99985     3.88675    0.00000     5.88661
      C   33   -0.03383      1.99990     4.03393    0.00000     6.03383
      N   34   -0.27448      1.99998     5.27450    0.00000     7.27448
      C   35    0.01290      1.99996     3.98714    0.00000     5.98710
      C   36    0.17193      1.99996     3.82811    0.00000     5.82807
      C   37    0.06545      1.99990     3.93466    0.00000     5.93455
      C   38   -0.08603      1.99994     4.08609    0.00000     6.08603
      C   39   -0.07105      1.99995     4.07110    0.00000     6.07105
      C   40    0.05511      1.99998     3.94491    0.00000     5.94489
      N   41    0.04046      1.99999     4.95955    0.00000     6.95954
      C   42    0.04561      1.99990     3.95449    0.00000     5.95439
      C   43   -0.07185      1.99996     4.07189    0.00000     6.07185
      C   44   -0.07083      1.99995     4.07087    0.00000     6.07083
      C   45   -0.09414      1.99995     4.09419    0.00000     6.09414
      C   46    0.03753      1.99991     3.96255    0.00000     5.96247
      C   47   -0.07409      1.99992     4.07417    0.00000     6.07409
      C   48   -0.08327      1.99994     4.08333    0.00000     6.08327
      C   49    0.40468      1.99991     3.59541    0.00000     5.59532
      O   50   -0.31380      1.99998     6.31382    0.00000     8.31380
      O   51   -0.26599      1.99999     6.26599    0.00000     8.26599
      C   52    0.03522      1.99984     3.96494    0.00000     5.96478
      C   53   -0.01618      1.99992     4.01626    0.00000     6.01618
      O   54   -0.51123      2.00000     6.51123    0.00000     8.51123
      H   55    0.04260      0.00000     0.95740    0.00000     0.95740
      H   56    0.02745      0.00000     0.97255    0.00000     0.97255
      H   57    0.03275      0.00000     0.96725    0.00000     0.96725
      H   58    0.04117      0.00000     0.95883    0.00000     0.95883
      H   59    0.02472      0.00000     0.97528    0.00000     0.97528
      H   60    0.02968      0.00000     0.97032    0.00000     0.97032
      H   61    0.02209      0.00000     0.97791    0.00000     0.97791
      H   62    0.04600      0.00000     0.95400    0.00000     0.95400
      H   63    0.03103      0.00000     0.96897    0.00000     0.96897
      H   64    0.03218      0.00000     0.96782    0.00000     0.96782
      H   65    0.03166      0.00000     0.96834    0.00000     0.96834
      H   66    0.02679      0.00000     0.97321    0.00000     0.97321
      H   67    0.03949      0.00000     0.96051    0.00000     0.96051
      H   68    0.02641      0.00000     0.97359    0.00000     0.97359
      H   69    0.03861      0.00000     0.96139    0.00000     0.96139
      H   70    0.04060      0.00000     0.95940    0.00000     0.95940
      H   71    0.02915      0.00000     0.97085    0.00000     0.97085
      H   72    0.02121      0.00000     0.97879    0.00000     0.97879
      H   73    0.02706      0.00000     0.97294    0.00000     0.97294
      H   74    0.04130      0.00000     0.95870    0.00000     0.95870
      H   75    0.04045      0.00000     0.95955    0.00000     0.95955
      H   76    0.04302      0.00000     0.95698    0.00000     0.95698
      H   77    0.04502      0.00000     0.95498    0.00000     0.95498
      H   78    0.04001      0.00000     0.95999    0.00000     0.95999
      H   79    0.02862      0.00000     0.97138    0.00000     0.97138
      H   80    0.04613      0.00000     0.95387    0.00000     0.95387
      H   81    0.05156      0.00000     0.94844    0.00000     0.94844
      H   82    0.03864      0.00000     0.96136    0.00000     0.96136
      H   83    0.04262      0.00000     0.95738    0.00000     0.95738
      H   84    0.04949      0.00000     0.95051    0.00000     0.95051
      H   85    0.03013      0.00000     0.96987    0.00000     0.96987
      H   86    0.03465      0.00000     0.96535    0.00000     0.96535
      H   87    0.05643      0.00000     0.94357    0.00000     0.94357
      H   88    0.03102      0.00000     0.96898    0.00000     0.96898
      H   89    0.03435      0.00000     0.96565    0.00000     0.96565
      H   90    0.03525      0.00000     0.96475    0.00000     0.96475
      H   91    0.03003      0.00000     0.96997    0.00000     0.96997
      H   92    0.05478      0.00000     0.94522    0.00000     0.94522
      H   93    0.02981      0.00000     0.97019    0.00000     0.97019
      H   94    0.05350      0.00000     0.94650    0.00000     0.94650
      H   95    0.03923      0.00000     0.96077    0.00000     0.96077
      H   96    0.04316      0.00000     0.95684    0.00000     0.95684
      H   97    0.03448      0.00000     0.96552    0.00000     0.96552
      H   98    0.05219      0.00000     0.94781    0.00000     0.94781
      H   99    0.04656      0.00000     0.95344    0.00000     0.95344
      H  100    0.04372      0.00000     0.95628    0.00000     0.95628
      H  101    0.06067      0.00000     0.93933    0.00000     0.93933
      H  102    0.03954      0.00000     0.96046    0.00000     0.96046
      H  103    0.03337      0.00000     0.96663    0.00000     0.96663
      H  104    0.04371      0.00000     0.95629    0.00000     0.95629
      H  105    0.04148      0.00000     0.95852    0.00000     0.95852
      H  106    0.04746      0.00000     0.95254    0.00000     0.95254
      H  107    0.04415      0.00000     0.95585    0.00000     0.95585
      H  108    0.05186      0.00000     0.94814    0.00000     0.94814
      H  109    0.04835      0.00000     0.95165    0.00000     0.95165
      H  110    0.03095      0.00000     0.96905    0.00000     0.96905
 =======================================================================
   * Total *   -0.00000    107.99666   286.00334    0.00000   394.00000

 Normal termination of Gaussian 16 at Thu May 30 09:21:41 2024.
