 Gaussian 16, Revision B.01,
 Gaussian 16:  ES64L-G16RevB.01 20-Dec-2017

 ----------------------------------------------
 # nmr=giao hf/sto-3g pop=nbo geom=connectivity
 ----------------------------------------------

 ------------------
 pleiokomenine_C_1a
 ------------------
 Symbolic Z-matrix:
 Charge =  0 Multiplicity = 1

                         Standard orientation:
 ---------------------------------------------------------------------
 Center     Atomic      Atomic             Coordinates (Angstroms)
 Number     Number       Type             X           Y           Z
 ---------------------------------------------------------------------
      1          6           0       -1.797746   -1.727896   -1.540850
      2          6           0       -1.126263   -2.956549   -1.465422
      3          6           0       -1.514109   -3.901231   -0.491863
      4          6           0       -2.550837   -3.631850    0.411729
      5          6           0       -3.181666   -2.401229    0.357795
      6          6           0       -2.807372   -1.467502   -0.628946
      7          7           0       -4.193272   -1.891041    1.221842
      8          6           0       -3.715006   -0.267765   -0.511953
      9          6           0       -4.057828   -0.423336    1.013429
     10          6           0       -3.207002    1.154360   -0.760326
     11          6           0       -2.820262    0.091519    1.883236
     12          6           0       -2.484194    1.552609    1.584252
     13          6           0       -3.401484    2.069555    0.471370
     14          7           0       -4.104536    1.674053   -1.796148
     15          6           0       -3.621675    2.914311   -2.360863
     16          6           0       -3.688260    3.971795   -1.245704
     17          6           0       -3.026442    3.515629    0.067892
     18          6           0       -4.792968   -0.470624   -1.609473
     19          6           0       -4.429836    0.572587   -2.669122
     20          6           0       -4.871645    1.956041    1.009807
     21          6           0       -5.218088    0.495789    1.453813
     22          6           0       -6.624328    0.085156    1.046840
     23          8           0       -7.384743    0.750399    0.354431
     24          8           0       -6.979014   -1.087508    1.644067
     25          6           0       -8.280338   -1.554861    1.292074
     26          6           0       -4.259573   -2.456860    2.559599
     27          6           0        0.038861   -3.242613   -2.389556
     28          6           0        1.386432   -2.887916   -1.795145
     29          6           0        1.638724   -1.584666   -1.346543
     30          6           0        2.405627   -3.856405   -1.692737
     31          6           0        3.663178   -3.537407   -1.159162
     32          6           0        3.900712   -2.245638   -0.721579
     33          6           0        2.870621   -1.294744   -0.783066
     34          7           0        5.105088   -1.699991   -0.199866
     35          6           0        3.345822   -0.026407   -0.125106
     36          6           0        4.892928   -0.238356   -0.344315
     37          6           0        2.929435    1.324755   -0.698974
     38          6           0        5.257225    0.217204   -1.821788
     39          6           0        4.972825    1.715785   -2.020755
     40          6           0        4.175166    2.250524   -0.806160
     41          7           0        1.759363    1.852675    0.143177
     42          6           0        2.098014    3.127962    0.875143
     43          6           0        2.697601    4.198953   -0.024463
     44          6           0        3.723515    3.693760   -1.040481
     45          6           0        2.774044    0.001877    1.298791
     46          6           0        1.462009    0.745988    1.133694
     47          6           0        5.161620    2.125859    0.409123
     48          6           0        5.742998    0.685207    0.547541
     49          6           0        5.934517    0.262791    1.996648
     50          8           0        5.452238    0.839973    2.963295
     51          8           0        6.790301   -0.792069    2.085555
     52          6           0        7.007804   -1.263050    3.415734
     53          6           0        6.341309   -2.328135   -0.646007
     54          8           0        0.659008    2.071257   -0.649411
     55          1           0       -1.526641   -0.987276   -2.287629
     56          1           0       -0.995008   -4.855201   -0.426511
     57          1           0       -2.827018   -4.376040    1.149254
     58          1           0       -2.161823    1.146423   -1.098061
     59          1           0       -3.044142   -0.009750    2.953562
     60          1           0       -1.919178   -0.514110    1.725574
     61          1           0       -2.598344    2.156138    2.493218
     62          1           0       -1.431284    1.633524    1.292116
     63          1           0       -2.600147    2.817753   -2.747443
     64          1           0       -4.260730    3.239209   -3.189694
     65          1           0       -3.216958    4.899594   -1.590175
     66          1           0       -4.739995    4.213722   -1.044260
     67          1           0       -1.938595    3.579600   -0.067665
     68          1           0       -3.280380    4.217611    0.871070
     69          1           0       -5.799809   -0.268341   -1.246956
     70          1           0       -4.815937   -1.473469   -2.052377
     71          1           0       -3.577456    0.254018   -3.279364
     72          1           0       -5.281380    0.788213   -3.321171
     73          1           0       -4.990769    2.619146    1.877569
     74          1           0       -5.580865    2.328455    0.263432
     75          1           0       -5.263567    0.512202    2.553595
     76          1           0       -8.361956   -1.691180    0.208990
     77          1           0       -8.433523   -2.524401    1.773846
     78          1           0       -9.045702   -0.862408    1.655799
     79          1           0       -3.283786   -2.454215    3.058453
     80          1           0       -4.629413   -3.486992    2.520074
     81          1           0       -4.956206   -1.891376    3.186036
     82          1           0       -0.084704   -2.691528   -3.331116
     83          1           0        0.011892   -4.303920   -2.669064
     84          1           0        0.875053   -0.814403   -1.416538
     85          1           0        2.225581   -4.873712   -2.034350
     86          1           0        4.427647   -4.303569   -1.098232
     87          1           0        2.492923    1.199658   -1.700570
     88          1           0        6.315324    0.024393   -2.040184
     89          1           0        4.696413   -0.355324   -2.571098
     90          1           0        4.420556    1.860529   -2.957707
     91          1           0        5.916744    2.264356   -2.133166
     92          1           0        1.158353    3.482967    1.316652
     93          1           0        2.762465    2.868707    1.701306
     94          1           0        1.891701    4.706755   -0.569519
     95          1           0        3.157216    4.968178    0.607946
     96          1           0        3.268052    3.768003   -2.037544
     97          1           0        4.585378    4.372178   -1.062349
     98          1           0        2.623560   -0.984458    1.750635
     99          1           0        3.381055    0.584137    1.984948
    100          1           0        1.087147    1.187898    2.061867
    101          1           0        0.677649    0.119712    0.697754
    102          1           0        4.696211    2.457087    1.336891
    103          1           0        6.003389    2.816905    0.260621
    104          1           0        6.768972    0.727242    0.150004
    105          1           0        7.505042   -0.494668    4.015524
    106          1           0        7.661200   -2.138143    3.362177
    107          1           0        6.062220   -1.565273    3.876796
    108          1           0        7.210382   -1.741092   -0.333586
    109          1           0        6.448380   -3.321855   -0.198044
    110          1           0        6.381573   -2.427760   -1.736788
 ---------------------------------------------------------------------

 SCF Done:  E(RHF) =  -2300.21766771     A.U. after   16 cycles

      1  C    Isotropic =   125.3919   Anisotropy =   147.5166

      2  C    Isotropic =   120.7557   Anisotropy =   159.1130

      3  C    Isotropic =   119.7968   Anisotropy =   153.9523

      4  C    Isotropic =   133.6669   Anisotropy =   143.9831

      5  C    Isotropic =   107.6569   Anisotropy =   130.3514

      6  C    Isotropic =   116.8859   Anisotropy =   144.8540

      7  N    Isotropic =   271.8255   Anisotropy =    82.0424

      8  C    Isotropic =   198.1212   Anisotropy =    12.5203

      9  C    Isotropic =   179.8664   Anisotropy =    43.2934

     10  C    Isotropic =   189.1746   Anisotropy =    33.3386

     11  C    Isotropic =   212.8555   Anisotropy =    21.2661

     12  C    Isotropic =   215.0401   Anisotropy =    17.9325

     13  C    Isotropic =   210.6478   Anisotropy =     7.1817

     14  N    Isotropic =   299.9978   Anisotropy =    59.4981

     15  C    Isotropic =   202.1608   Anisotropy =    38.8263

     16  C    Isotropic =   219.2597   Anisotropy =     8.4274

     17  C    Isotropic =   214.2219   Anisotropy =    21.9331

     18  C    Isotropic =   209.2858   Anisotropy =    31.4986

     19  C    Isotropic =   200.0344   Anisotropy =    40.3953

     20  C    Isotropic =   212.0737   Anisotropy =    21.8987

     21  C    Isotropic =   208.1013   Anisotropy =    12.5898

     22  C    Isotropic =    96.9202   Anisotropy =    98.9899

     23  O    Isotropic =  -136.6792   Anisotropy =   887.5568

     24  O    Isotropic =   285.0398   Anisotropy =   138.1630

     25  C    Isotropic =   197.4618   Anisotropy =    57.8742

     26  C    Isotropic =   209.8647   Anisotropy =    41.0210

     27  C    Isotropic =   206.4928   Anisotropy =    16.9605

     28  C    Isotropic =   119.9189   Anisotropy =   157.5976

     29  C    Isotropic =   124.3452   Anisotropy =   153.4659

     30  C    Isotropic =   118.6130   Anisotropy =   149.7375

     31  C    Isotropic =   133.5759   Anisotropy =   142.2227

     32  C    Isotropic =   109.2343   Anisotropy =   126.0511

     33  C    Isotropic =   121.5295   Anisotropy =   133.8874

     34  N    Isotropic =   274.1225   Anisotropy =    81.6323

     35  C    Isotropic =   197.7775   Anisotropy =    16.5553

     36  C    Isotropic =   180.7219   Anisotropy =    45.2011

     37  C    Isotropic =   175.9880   Anisotropy =    57.8528

     38  C    Isotropic =   213.6115   Anisotropy =    18.7502

     39  C    Isotropic =   211.7879   Anisotropy =    22.7789

     40  C    Isotropic =   211.0305   Anisotropy =     8.9473

     41  N    Isotropic =   227.5949   Anisotropy =    57.2634

     42  C    Isotropic =   196.7290   Anisotropy =    47.0211

     43  C    Isotropic =   221.8415   Anisotropy =    10.7683

     44  C    Isotropic =   217.8230   Anisotropy =    20.8873

     45  C    Isotropic =   214.2940   Anisotropy =    27.9572

     46  C    Isotropic =   187.0439   Anisotropy =    59.0047

     47  C    Isotropic =   211.9420   Anisotropy =    23.6930

     48  C    Isotropic =   208.3488   Anisotropy =    10.3961

     49  C    Isotropic =    96.2189   Anisotropy =    97.7436

     50  O    Isotropic =  -131.4911   Anisotropy =   882.7084

     51  O    Isotropic =   282.7788   Anisotropy =   139.1468

     52  C    Isotropic =   197.2459   Anisotropy =    57.7886

     53  C    Isotropic =   209.5373   Anisotropy =    42.4440

     54  O    Isotropic =    28.0308   Anisotropy =   460.1340

     55  H    Isotropic =    25.6748   Anisotropy =    12.0103

     56  H    Isotropic =    26.0527   Anisotropy =     7.0711

     57  H    Isotropic =    26.6562   Anisotropy =     7.6969

     58  H    Isotropic =    31.4490   Anisotropy =    11.3756

     59  H    Isotropic =    32.2663   Anisotropy =    12.1511

     60  H    Isotropic =    33.2278   Anisotropy =     9.7536

     61  H    Isotropic =    32.4072   Anisotropy =    13.6392

     62  H    Isotropic =    32.0941   Anisotropy =    19.7181

     63  H    Isotropic =    32.2278   Anisotropy =    10.9101

     64  H    Isotropic =    31.7693   Anisotropy =    15.5015

     65  H    Isotropic =    32.3687   Anisotropy =    16.4759

     66  H    Isotropic =    31.8875   Anisotropy =    13.9054

     67  H    Isotropic =    31.9566   Anisotropy =    14.6797

     68  H    Isotropic =    32.3342   Anisotropy =    13.9277

     69  H    Isotropic =    32.4038   Anisotropy =    12.6520

     70  H    Isotropic =    32.9679   Anisotropy =    11.3957

     71  H    Isotropic =    32.1519   Anisotropy =    11.1344

     72  H    Isotropic =    31.9245   Anisotropy =    16.4514

     73  H    Isotropic =    32.0271   Anisotropy =    14.8003

     74  H    Isotropic =    30.2831   Anisotropy =    11.1294

     75  H    Isotropic =    31.2731   Anisotropy =    12.1972

     76  H    Isotropic =    30.5753   Anisotropy =     8.1749

     77  H    Isotropic =    30.5398   Anisotropy =    11.9101

     78  H    Isotropic =    30.5087   Anisotropy =    12.1666

     79  H    Isotropic =    32.0002   Anisotropy =    10.4220

     80  H    Isotropic =    30.7518   Anisotropy =    14.8570

     81  H    Isotropic =    30.8784   Anisotropy =    10.9983

     82  H    Isotropic =    30.1164   Anisotropy =     8.2796

     83  H    Isotropic =    29.8904   Anisotropy =    12.6680

     84  H    Isotropic =    25.7539   Anisotropy =    15.4341

     85  H    Isotropic =    25.6132   Anisotropy =     6.6198

     86  H    Isotropic =    26.5399   Anisotropy =     7.9309

     87  H    Isotropic =    30.6249   Anisotropy =     6.5384

     88  H    Isotropic =    32.1257   Anisotropy =    14.1906

     89  H    Isotropic =    32.8127   Anisotropy =     8.3972

     90  H    Isotropic =    32.3195   Anisotropy =    13.2061

     91  H    Isotropic =    32.1617   Anisotropy =    15.4773

     92  H    Isotropic =    30.9704   Anisotropy =    12.8692

     93  H    Isotropic =    31.8882   Anisotropy =     7.1421

     94  H    Isotropic =    31.2591   Anisotropy =    15.1885

     95  H    Isotropic =    32.2085   Anisotropy =    16.2170

     96  H    Isotropic =    31.9778   Anisotropy =    12.9008

     97  H    Isotropic =    32.2964   Anisotropy =    15.2995

     98  H    Isotropic =    33.3127   Anisotropy =    10.1563

     99  H    Isotropic =    32.7583   Anisotropy =    11.4038

    100  H    Isotropic =    31.5429   Anisotropy =    11.3031

    101  H    Isotropic =    31.1650   Anisotropy =    17.3752

    102  H    Isotropic =    31.6000   Anisotropy =     8.7386

    103  H    Isotropic =    32.0977   Anisotropy =    15.1382

    104  H    Isotropic =    31.2127   Anisotropy =    12.8342

    105  H    Isotropic =    30.5911   Anisotropy =    11.7930

    106  H    Isotropic =    30.5307   Anisotropy =    12.0974

    107  H    Isotropic =    30.6823   Anisotropy =     7.6100

    108  H    Isotropic =    30.9112   Anisotropy =    11.0037

    109  H    Isotropic =    30.6997   Anisotropy =    14.5269

    110  H    Isotropic =    31.8952   Anisotropy =    11.9013

 The electronic state is 1-A.
 Alpha  occ. eigenvalues --  -20.31449 -20.29298 -20.25455 -20.23288 -19.92205
 Alpha  occ. eigenvalues --  -15.48577 -15.34332 -15.32591 -15.28646 -11.17472
 Alpha  occ. eigenvalues --  -11.15130 -11.11185 -11.10570 -11.09636 -11.09541
 Alpha  occ. eigenvalues --  -11.09027 -11.08862 -11.08467 -11.08182 -11.07515
 Alpha  occ. eigenvalues --  -11.07494 -11.07396 -11.07083 -11.06163 -11.05899
 Alpha  occ. eigenvalues --  -11.05839 -11.05689 -11.05403 -11.05272 -11.05242
 Alpha  occ. eigenvalues --  -11.05184 -11.05074 -11.04980 -11.04888 -11.04807
 Alpha  occ. eigenvalues --  -11.04367 -11.04195 -11.03567 -11.02609 -11.02547
 Alpha  occ. eigenvalues --  -11.02414 -11.02352 -11.02203 -11.02153 -11.02096
 Alpha  occ. eigenvalues --  -11.02047 -11.02008 -11.01962 -11.01738 -11.01467
 Alpha  occ. eigenvalues --  -11.01132 -11.01125 -11.00809 -11.00728  -1.38670
 Alpha  occ. eigenvalues --   -1.36580  -1.28528  -1.28385  -1.26238  -1.21767
 Alpha  occ. eigenvalues --   -1.20391  -1.17934  -1.12228  -1.09236  -1.07966
 Alpha  occ. eigenvalues --   -1.07228  -1.06355  -1.03956  -1.03415  -1.00894
 Alpha  occ. eigenvalues --   -0.99784  -0.98695  -0.97823  -0.97138  -0.96792
 Alpha  occ. eigenvalues --   -0.95150  -0.94682  -0.93813  -0.92875  -0.92742
 Alpha  occ. eigenvalues --   -0.92395  -0.90900  -0.90285  -0.89301  -0.87906
 Alpha  occ. eigenvalues --   -0.86428  -0.84276  -0.82721  -0.82289  -0.80950
 Alpha  occ. eigenvalues --   -0.80108  -0.79417  -0.78708  -0.78102  -0.75916
 Alpha  occ. eigenvalues --   -0.75632  -0.75030  -0.73327  -0.72910  -0.72133
 Alpha  occ. eigenvalues --   -0.71448  -0.69742  -0.69249  -0.68279  -0.66810
 Alpha  occ. eigenvalues --   -0.65673  -0.64889  -0.64182  -0.64086  -0.63263
 Alpha  occ. eigenvalues --   -0.62416  -0.62021  -0.61965  -0.61080  -0.60973
 Alpha  occ. eigenvalues --   -0.60068  -0.59775  -0.59012  -0.58783  -0.58695
 Alpha  occ. eigenvalues --   -0.58627  -0.58098  -0.57662  -0.57207  -0.56661
 Alpha  occ. eigenvalues --   -0.56543  -0.56280  -0.56084  -0.55940  -0.55598
 Alpha  occ. eigenvalues --   -0.55435  -0.55211  -0.54834  -0.54095  -0.53901
 Alpha  occ. eigenvalues --   -0.53293  -0.52961  -0.52638  -0.52287  -0.51923
 Alpha  occ. eigenvalues --   -0.51765  -0.51556  -0.50838  -0.50468  -0.50310
 Alpha  occ. eigenvalues --   -0.49958  -0.49533  -0.49360  -0.49129  -0.48825
 Alpha  occ. eigenvalues --   -0.48410  -0.48100  -0.47992  -0.47506  -0.46998
 Alpha  occ. eigenvalues --   -0.46816  -0.46240  -0.45740  -0.45423  -0.45120
 Alpha  occ. eigenvalues --   -0.44916  -0.44879  -0.44480  -0.43863  -0.43547
 Alpha  occ. eigenvalues --   -0.43070  -0.42833  -0.42518  -0.42335  -0.42125
 Alpha  occ. eigenvalues --   -0.42052  -0.41692  -0.41016  -0.40557  -0.40167
 Alpha  occ. eigenvalues --   -0.39877  -0.39538  -0.39403  -0.38543  -0.38049
 Alpha  occ. eigenvalues --   -0.36522  -0.36290  -0.35877  -0.34995  -0.34478
 Alpha  occ. eigenvalues --   -0.34071  -0.33001  -0.32792  -0.31995  -0.30843
 Alpha  occ. eigenvalues --   -0.27423  -0.26244  -0.25897  -0.21638  -0.19940
 Alpha  occ. eigenvalues --   -0.15855  -0.15597
 Alpha virt. eigenvalues --    0.26555   0.27329   0.27962   0.29295   0.29606
 Alpha virt. eigenvalues --    0.31916   0.46060   0.46593   0.48352   0.49477
 Alpha virt. eigenvalues --    0.49622   0.49930   0.50554   0.51934   0.52564

 Mulliken charges:
               1
     1  C   -0.076403
     2  C   -0.000818
     3  C   -0.063910
     4  C   -0.090814
     5  C    0.089883
     6  C   -0.011991
     7  N   -0.282967
     8  C    0.015359
     9  C    0.129411
    10  C    0.037349
    11  C   -0.114235
    12  C   -0.111336
    13  C    0.043940
    14  N   -0.293595
    15  C   -0.012622
    16  C   -0.094177
    17  C   -0.102682
    18  C   -0.099246
    19  C   -0.013771
    20  C   -0.104514
    21  C   -0.063978
    22  C    0.317842
    23  O   -0.274545
    24  O   -0.256478
    25  C   -0.055329
    26  C   -0.078490
    27  C   -0.109657
    28  C    0.001950
    29  C   -0.075243
    30  C   -0.060084
    31  C   -0.090002
    32  C    0.089538
    33  C   -0.019993
    34  N   -0.285745
    35  C    0.014269
    36  C    0.128684
    37  C    0.034067
    38  C   -0.115516
    39  C   -0.103944
    40  C    0.032463
    41  N   -0.074874
    42  C   -0.008317
    43  C   -0.102038
    44  C   -0.102169
    45  C   -0.120086
    46  C   -0.014063
    47  C   -0.111128
    48  C   -0.065951
    49  C    0.321227
    50  O   -0.278791
    51  O   -0.254443
    52  C   -0.055416
    53  C   -0.079101
    54  O   -0.457523
    55  H    0.061226
    56  H    0.054499
    57  H    0.057711
    58  H    0.060105
    59  H    0.046136
    60  H    0.050506
    61  H    0.043025
    62  H    0.062186
    63  H    0.045148
    64  H    0.056789
    65  H    0.048089
    66  H    0.052060
    67  H    0.061885
    68  H    0.045847
    69  H    0.063924
    70  H    0.055527
    71  H    0.039693
    72  H    0.059676
    73  H    0.045956
    74  H    0.078833
    75  H    0.061328
    76  H    0.073759
    77  H    0.075212
    78  H    0.070758
    79  H    0.053205
    80  H    0.070183
    81  H    0.075869
    82  H    0.060157
    83  H    0.057717
    84  H    0.076719
    85  H    0.057665
    86  H    0.058962
    87  H    0.092038
    88  H    0.053614
    89  H    0.057445
    90  H    0.057024
    91  H    0.051867
    92  H    0.086775
    93  H    0.061177
    94  H    0.076233
    95  H    0.060159
    96  H    0.064102
    97  H    0.055399
    98  H    0.073087
    99  H    0.070725
   100  H    0.074168
   101  H    0.093703
   102  H    0.064950
   103  H    0.056271
   104  H    0.066991
   105  H    0.073302
   106  H    0.078764
   107  H    0.075877
   108  H    0.076575
   109  H    0.072990
   110  H    0.056415
 Sum of Mulliken charges =  -0.00000

 Dipole moment (field-independent basis, Debye):
    X=              6.3358    Y=             -0.7350    Z=              1.7962  Tot=              6.6264
 Quadrupole moment (field-independent basis, Debye-Ang):
   XX=           -284.7792   YY=           -297.4061   ZZ=           -294.1061
   XY=             10.0157   XZ=             -8.3115   YZ=              0.0691

 Summary of Natural Population Analysis:

                                       Natural Population
                Natural  -----------------------------------------------
    Atom  No    Charge         Core      Valence    Rydberg      Total
 -----------------------------------------------------------------------
      C    1   -0.05931      1.99993     4.05939    0.00000     6.05931
      C    2    0.01268      1.99990     3.98741    0.00000     5.98732
      C    3   -0.03591      1.99994     4.03597    0.00000     6.03591
      C    4   -0.08809      1.99993     4.08815    0.00000     6.08809
      C    5    0.11390      1.99985     3.88625    0.00000     5.88610
      C    6   -0.02066      1.99990     4.02076    0.00000     6.02066
      N    7   -0.27197      1.99998     5.27199    0.00000     7.27197
      C    8    0.01529      1.99996     3.98476    0.00000     5.98471
      C    9    0.17349      1.99996     3.82655    0.00000     5.82651
      C   10    0.06909      1.99994     3.93097    0.00000     5.93091
      C   11   -0.08326      1.99994     4.08333    0.00000     6.08326
      C   12   -0.08248      1.99996     4.08252    0.00000     6.08248
      C   13    0.06607      1.99998     3.93395    0.00000     5.93393
      N   14   -0.28329      1.99999     5.28330    0.00000     7.28329
      C   15    0.04203      1.99994     3.95803    0.00000     5.95797
      C   16   -0.05685      1.99996     4.05689    0.00000     6.05685
      C   17   -0.06744      1.99995     4.06749    0.00000     6.06744
      C   18   -0.06594      1.99994     4.06600    0.00000     6.06594
      C   19    0.03984      1.99995     3.96021    0.00000     5.96016
      C   20   -0.06698      1.99992     4.06706    0.00000     6.06698
      C   21   -0.07998      1.99994     4.08004    0.00000     6.07998
      C   22    0.40040      1.99991     3.59969    0.00000     5.59960
      O   23   -0.30855      1.99999     6.30857    0.00000     8.30855
      O   24   -0.26823      1.99999     6.26824    0.00000     8.26823
      C   25    0.03503      1.99984     3.96513    0.00000     5.96497
      C   26   -0.01625      1.99992     4.01633    0.00000     6.01625
      C   27   -0.08648      1.99995     4.08652    0.00000     6.08648
      C   28    0.01629      1.99990     3.98381    0.00000     5.98371
      C   29   -0.05546      1.99992     4.05553    0.00000     6.05546
      C   30   -0.03093      1.99994     4.03098    0.00000     6.03093
      C   31   -0.08752      1.99993     4.08759    0.00000     6.08752
      C   32    0.11355      1.99985     3.88660    0.00000     5.88645
      C   33   -0.03384      1.99990     4.03394    0.00000     6.03384
      N   34   -0.27406      1.99998     5.27409    0.00000     7.27406
      C   35    0.01258      1.99996     3.98746    0.00000     5.98742
      C   36    0.17193      1.99996     3.82811    0.00000     5.82807
      C   37    0.06539      1.99990     3.93471    0.00000     5.93461
      C   38   -0.08613      1.99994     4.08619    0.00000     6.08613
      C   39   -0.07076      1.99995     4.07081    0.00000     6.07076
      C   40    0.05504      1.99998     3.94499    0.00000     5.94496
      N   41    0.03941      1.99999     4.96060    0.00000     6.96059
      C   42    0.04543      1.99990     3.95467    0.00000     5.95457
      C   43   -0.07256      1.99996     4.07260    0.00000     6.07256
      C   44   -0.07107      1.99995     4.07111    0.00000     6.07107
      C   45   -0.09444      1.99995     4.09449    0.00000     6.09444
      C   46    0.03754      1.99991     3.96255    0.00000     5.96246
      C   47   -0.07349      1.99992     4.07357    0.00000     6.07349
      C   48   -0.08292      1.99994     4.08298    0.00000     6.08292
      C   49    0.40440      1.99991     3.59569    0.00000     5.59560
      O   50   -0.31340      1.99998     6.31342    0.00000     8.31340
      O   51   -0.26604      1.99999     6.26605    0.00000     8.26604
      C   52    0.03519      1.99984     3.96497    0.00000     5.96481
      C   53   -0.01629      1.99992     4.01637    0.00000     6.01629
      O   54   -0.51103      2.00000     6.51103    0.00000     8.51103
      H   55    0.03591      0.00000     0.96409    0.00000     0.96409
      H   56    0.02755      0.00000     0.97245    0.00000     0.97245
      H   57    0.03371      0.00000     0.96629    0.00000     0.96629
      H   58    0.02794      0.00000     0.97206    0.00000     0.97206
      H   59    0.02434      0.00000     0.97566    0.00000     0.97566
      H   60    0.02782      0.00000     0.97218    0.00000     0.97218
      H   61    0.02340      0.00000     0.97660    0.00000     0.97660
      H   62    0.04042      0.00000     0.95958    0.00000     0.95958
      H   63    0.01695      0.00000     0.98305    0.00000     0.98305
      H   64    0.03106      0.00000     0.96894    0.00000     0.96894
      H   65    0.02694      0.00000     0.97306    0.00000     0.97306
      H   66    0.03024      0.00000     0.96976    0.00000     0.96976
      H   67    0.03901      0.00000     0.96099    0.00000     0.96099
      H   68    0.02481      0.00000     0.97519    0.00000     0.97519
      H   69    0.03965      0.00000     0.96035    0.00000     0.96035
      H   70    0.03367      0.00000     0.96633    0.00000     0.96633
      H   71    0.01208      0.00000     0.98792    0.00000     0.98792
      H   72    0.03356      0.00000     0.96644    0.00000     0.96644
      H   73    0.02323      0.00000     0.97677    0.00000     0.97677
      H   74    0.05235      0.00000     0.94765    0.00000     0.94765
      H   75    0.03834      0.00000     0.96166    0.00000     0.96166
      H   76    0.04242      0.00000     0.95758    0.00000     0.95758
      H   77    0.04434      0.00000     0.95566    0.00000     0.95566
      H   78    0.03936      0.00000     0.96064    0.00000     0.96064
      H   79    0.02801      0.00000     0.97199    0.00000     0.97199
      H   80    0.04598      0.00000     0.95402    0.00000     0.95402
      H   81    0.05159      0.00000     0.94841    0.00000     0.94841
      H   82    0.04150      0.00000     0.95850    0.00000     0.95850
      H   83    0.03872      0.00000     0.96128    0.00000     0.96128
      H   84    0.04939      0.00000     0.95061    0.00000     0.95061
      H   85    0.03014      0.00000     0.96986    0.00000     0.96986
      H   86    0.03478      0.00000     0.96522    0.00000     0.96522
      H   87    0.05579      0.00000     0.94421    0.00000     0.94421
      H   88    0.03123      0.00000     0.96877    0.00000     0.96877
      H   89    0.03411      0.00000     0.96589    0.00000     0.96589
      H   90    0.03484      0.00000     0.96516    0.00000     0.96516
      H   91    0.03016      0.00000     0.96984    0.00000     0.96984
      H   92    0.05545      0.00000     0.94455    0.00000     0.94455
      H   93    0.02982      0.00000     0.97018    0.00000     0.97018
      H   94    0.05393      0.00000     0.94607    0.00000     0.94607
      H   95    0.03991      0.00000     0.96009    0.00000     0.96009
      H   96    0.04242      0.00000     0.95758    0.00000     0.95758
      H   97    0.03462      0.00000     0.96538    0.00000     0.96538
      H   98    0.05252      0.00000     0.94748    0.00000     0.94748
      H   99    0.04691      0.00000     0.95309    0.00000     0.95309
      H  100    0.04421      0.00000     0.95579    0.00000     0.95579
      H  101    0.06081      0.00000     0.93919    0.00000     0.93919
      H  102    0.03934      0.00000     0.96066    0.00000     0.96066
      H  103    0.03347      0.00000     0.96653    0.00000     0.96653
      H  104    0.04362      0.00000     0.95638    0.00000     0.95638
      H  105    0.04160      0.00000     0.95840    0.00000     0.95840
      H  106    0.04750      0.00000     0.95250    0.00000     0.95250
      H  107    0.04423      0.00000     0.95577    0.00000     0.95577
      H  108    0.05206      0.00000     0.94794    0.00000     0.94794
      H  109    0.04844      0.00000     0.95156    0.00000     0.95156
      H  110    0.03087      0.00000     0.96913    0.00000     0.96913
 =======================================================================
   * Total *   -0.00000    107.99665   286.00335    0.00000   394.00000

 Normal termination of Gaussian 16 at Thu May 30 08:41:14 2024.
