 Gaussian 16, Revision B.01,
 Gaussian 16:  ES64L-G16RevB.01 20-Dec-2017

 ----------------------------------------------
 # nmr=giao hf/sto-3g pop=nbo geom=connectivity
 ----------------------------------------------

 ------------------
 pleiokomenine_C_1a
 ------------------
 Symbolic Z-matrix:
 Charge =  0 Multiplicity = 1

                         Standard orientation:
 ---------------------------------------------------------------------
 Center     Atomic      Atomic             Coordinates (Angstroms)
 Number     Number       Type             X           Y           Z
 ---------------------------------------------------------------------
      1          6           0        1.761550    1.805464   -1.621633
      2          6           0        1.215793    3.094526   -1.685751
      3          6           0        1.801258    4.133172   -0.930944
      4          6           0        2.902209    3.896011   -0.094926
      5          6           0        3.397387    2.608512    0.007143
      6          6           0        2.832651    1.581095   -0.774841
      7          7           0        4.416475    2.118063    0.866813
      8          6           0        3.597019    0.308393   -0.509483
      9          6           0        4.086502    0.672478    0.937036
     10          6           0        2.888578   -1.046325   -0.470093
     11          6           0        2.875117    0.492500    1.964858
     12          6           0        2.320005   -0.931903    1.944794
     13          6           0        3.065412   -1.756521    0.889652
     14          7           0        3.618326   -1.859578   -1.451953
     15          6           0        2.909929   -3.082578   -1.758957
     16          6           0        2.936004   -3.940179   -0.481880
     17          6           0        2.469167   -3.180359    0.774301
     18          6           0        4.595969    0.158406   -1.685929
     19          6           0        3.990337   -0.968381   -2.526541
     20          6           0        4.580492   -1.761547    1.298488
     21          6           0        5.152017   -0.311359    1.463382
     22          6           0        6.569799   -0.161032    0.928165
     23          8           0        7.056497    0.842167    0.427574
     24          8           0        7.292751   -1.292895    1.193284
     25          6           0        8.648499   -1.235835    0.749039
     26          6           0        4.748169    2.884830    2.050674
     27          6           0       -0.032581    3.341423   -2.504893
     28          6           0       -1.303596    3.002199   -1.753926
     29          6           0       -1.647275    1.661446   -1.529093
     30          6           0       -2.116962    4.019586   -1.216809
     31          6           0       -3.264601    3.714247   -0.471941
     32          6           0       -3.594464    2.386355   -0.256972
     33          6           0       -2.766698    1.372990   -0.765850
     34          7           0       -4.710991    1.863309    0.446652
     35          6           0       -3.256981    0.037551   -0.263791
     36          6           0       -4.764394    0.461429   -0.031883
     37          6           0       -3.215824   -1.208027   -1.165127
     38          6           0       -5.526379    0.406175   -1.427605
     39          6           0       -5.528512   -1.017658   -2.003680
     40          6           0       -4.615589   -1.911232   -1.137216
     41          7           0       -2.048384   -2.039361   -0.656434
     42          6           0       -2.107414   -3.487852   -1.064746
     43          6           0       -3.470169   -4.145242   -0.966195
     44          6           0       -4.519125   -3.328015   -1.711421
     45          6           0       -2.369269   -0.327547    0.955978
     46          6           0       -2.035012   -1.807036    0.821150
     47          6           0       -5.304366   -1.946720    0.270436
     48          6           0       -5.528763   -0.530963    0.857376
     49          6           0       -5.242464   -0.480853    2.347742
     50          8           0       -4.586699   -1.316898    2.957954
     51          8           0       -5.870958    0.577794    2.927531
     52          6           0       -5.613827    0.719511    4.324577
     53          6           0       -5.902228    2.698000    0.489943
     54          8           0       -0.863403   -1.545133   -1.186761
     55          1           0        1.337311    0.987730   -2.196673
     56          1           0        1.383848    5.136451   -0.974933
     57          1           0        3.324593    4.709390    0.482634
     58          1           0        1.828702   -0.945677   -0.737376
     59          1           0        3.207856    0.732745    2.983560
     60          1           0        2.051690    1.190303    1.768333
     61          1           0        2.423275   -1.387569    2.937248
     62          1           0        1.244730   -0.900116    1.728919
     63          1           0        1.879738   -2.892945   -2.083131
     64          1           0        3.414427   -3.633084   -2.560976
     65          1           0        2.312166   -4.830234   -0.624001
     66          1           0        3.959282   -4.300845   -0.313792
     67          1           0        1.374338   -3.107086    0.728422
     68          1           0        2.703157   -3.769146    1.669067
     69          1           0        5.584760   -0.161361   -1.352719
     70          1           0        4.734986    1.063013   -2.288910
     71          1           0        3.128926   -0.627432   -3.111613
     72          1           0        4.734574   -1.406750   -3.197751
     73          1           0        4.697021   -2.291742    2.253276
     74          1           0        5.166664   -2.333276    0.570085
     75          1           0        5.280141   -0.131194    2.541598
     76          1           0        9.117428   -2.198736    0.969606
     77          1           0        8.693123   -1.069716   -0.332025
     78          1           0        9.193966   -0.453987    1.286357
     79          1           0        3.870274    3.073757    2.677987
     80          1           0        5.193856    3.846385    1.774412
     81          1           0        5.489896    2.353061    2.654905
     82          1           0        0.008619    2.751797   -3.430351
     83          1           0       -0.056151    4.387812   -2.835843
     84          1           0       -1.019418    0.855025   -1.897541
     85          1           0       -1.849439    5.063506   -1.365095
     86          1           0       -3.866225    4.518375   -0.064737
     87          1           0       -2.944775   -0.965923   -2.202185
     88          1           0       -6.564435    0.744465   -1.314378
     89          1           0       -5.078285    1.086905   -2.162152
     90          1           0       -5.189337   -0.994217   -3.046879
     91          1           0       -6.552848   -1.410992   -2.023062
     92          1           0       -1.769831   -3.509285   -2.109266
     93          1           0       -1.361173   -4.010058   -0.455298
     94          1           0       -3.416155   -5.147949   -1.406168
     95          1           0       -3.752158   -4.287431    0.081178
     96          1           0       -4.252912   -3.285193   -2.775501
     97          1           0       -5.489340   -3.836146   -1.653883
     98          1           0       -1.414083    0.216580    0.923929
     99          1           0       -2.794495   -0.070966    1.925049
    100          1           0       -2.768290   -2.464681    1.282630
    101          1           0       -1.038056   -2.057725    1.197297
    102          1           0       -4.765933   -2.593699    0.961964
    103          1           0       -6.289299   -2.426274    0.171071
    104          1           0       -6.608495   -0.329680    0.782603
    105          1           0       -4.540365    0.827402    4.509772
    106          1           0       -6.019428   -0.134896    4.875197
    107          1           0       -6.117049    1.626314    4.671170
    108          1           0       -6.745455    2.148191    0.919075
    109          1           0       -5.734273    3.572234    1.128090
    110          1           0       -6.199374    3.042442   -0.507045
 ---------------------------------------------------------------------

 SCF Done:  E(RHF) =  -2300.22045271     A.U. after   16 cycles

      1  C    Isotropic =   125.4957   Anisotropy =   148.7554

      2  C    Isotropic =   121.4517   Anisotropy =   155.9614

      3  C    Isotropic =   119.9382   Anisotropy =   151.5909

      4  C    Isotropic =   134.3959   Anisotropy =   142.6966

      5  C    Isotropic =   108.0426   Anisotropy =   130.1520

      6  C    Isotropic =   117.8488   Anisotropy =   142.3445

      7  N    Isotropic =   274.0447   Anisotropy =    84.8026

      8  C    Isotropic =   198.5747   Anisotropy =    13.2234

      9  C    Isotropic =   179.9966   Anisotropy =    42.5219

     10  C    Isotropic =   189.1713   Anisotropy =    32.2202

     11  C    Isotropic =   213.0931   Anisotropy =    20.5628

     12  C    Isotropic =   214.7521   Anisotropy =    17.2103

     13  C    Isotropic =   210.8994   Anisotropy =     7.9155

     14  N    Isotropic =   298.8390   Anisotropy =    57.0121

     15  C    Isotropic =   202.1829   Anisotropy =    38.8464

     16  C    Isotropic =   219.1141   Anisotropy =     7.9902

     17  C    Isotropic =   213.9035   Anisotropy =    21.8083

     18  C    Isotropic =   208.8299   Anisotropy =    28.8306

     19  C    Isotropic =   199.8927   Anisotropy =    40.2819

     20  C    Isotropic =   211.5587   Anisotropy =    25.1551

     21  C    Isotropic =   207.6209   Anisotropy =    17.3508

     22  C    Isotropic =    98.7806   Anisotropy =    98.3291

     23  O    Isotropic =  -143.6905   Anisotropy =   893.7488

     24  O    Isotropic =   285.3732   Anisotropy =   145.3627

     25  C    Isotropic =   197.6153   Anisotropy =    57.3052

     26  C    Isotropic =   210.9292   Anisotropy =    41.3503

     27  C    Isotropic =   206.5393   Anisotropy =    14.8125

     28  C    Isotropic =   119.2781   Anisotropy =   158.1662

     29  C    Isotropic =   122.1351   Anisotropy =   157.0873

     30  C    Isotropic =   119.1343   Anisotropy =   151.2629

     31  C    Isotropic =   134.3598   Anisotropy =   141.2748

     32  C    Isotropic =   109.8086   Anisotropy =   125.7068

     33  C    Isotropic =   119.8290   Anisotropy =   135.7938

     34  N    Isotropic =   275.6099   Anisotropy =    81.9141

     35  C    Isotropic =   195.6763   Anisotropy =    13.5520

     36  C    Isotropic =   181.4014   Anisotropy =    44.4402

     37  C    Isotropic =   180.1885   Anisotropy =    47.5403

     38  C    Isotropic =   213.8123   Anisotropy =    19.4697

     39  C    Isotropic =   212.5036   Anisotropy =    21.9823

     40  C    Isotropic =   212.0014   Anisotropy =     9.5802

     41  N    Isotropic =   235.0036   Anisotropy =    27.6730

     42  C    Isotropic =   194.9084   Anisotropy =    48.5611

     43  C    Isotropic =   222.9805   Anisotropy =    11.4853

     44  C    Isotropic =   215.7684   Anisotropy =    18.7223

     45  C    Isotropic =   211.0443   Anisotropy =    37.5261

     46  C    Isotropic =   191.9107   Anisotropy =    49.9932

     47  C    Isotropic =   212.5363   Anisotropy =    21.4971

     48  C    Isotropic =   209.5258   Anisotropy =     9.2874

     49  C    Isotropic =    96.0962   Anisotropy =    98.6593

     50  O    Isotropic =  -133.4708   Anisotropy =   887.6188

     51  O    Isotropic =   283.2125   Anisotropy =   139.2071

     52  C    Isotropic =   197.2154   Anisotropy =    57.4343

     53  C    Isotropic =   209.9564   Anisotropy =    42.1817

     54  O    Isotropic =     2.8267   Anisotropy =   523.0972

     55  H    Isotropic =    25.6278   Anisotropy =    12.0101

     56  H    Isotropic =    25.9056   Anisotropy =     6.8793

     57  H    Isotropic =    26.7343   Anisotropy =     7.4311

     58  H    Isotropic =    31.4805   Anisotropy =    13.2812

     59  H    Isotropic =    32.4581   Anisotropy =    12.6912

     60  H    Isotropic =    33.4070   Anisotropy =     8.7213

     61  H    Isotropic =    32.4658   Anisotropy =    13.9248

     62  H    Isotropic =    32.7019   Anisotropy =    17.3759

     63  H    Isotropic =    31.9098   Anisotropy =    12.3251

     64  H    Isotropic =    31.8054   Anisotropy =    14.9201

     65  H    Isotropic =    32.3800   Anisotropy =    15.9026

     66  H    Isotropic =    31.9311   Anisotropy =    13.8286

     67  H    Isotropic =    32.2494   Anisotropy =    15.5524

     68  H    Isotropic =    32.3217   Anisotropy =    13.9658

     69  H    Isotropic =    32.4167   Anisotropy =    12.7433

     70  H    Isotropic =    32.7316   Anisotropy =    12.0073

     71  H    Isotropic =    32.0753   Anisotropy =    10.6500

     72  H    Isotropic =    31.9990   Anisotropy =    16.0736

     73  H    Isotropic =    31.6383   Anisotropy =    14.4375

     74  H    Isotropic =    30.8170   Anisotropy =     9.8334

     75  H    Isotropic =    31.5424   Anisotropy =    12.2680

     76  H    Isotropic =    30.5693   Anisotropy =    12.5122

     77  H    Isotropic =    30.5626   Anisotropy =     8.1659

     78  H    Isotropic =    30.5594   Anisotropy =    11.4104

     79  H    Isotropic =    32.1004   Anisotropy =    10.7871

     80  H    Isotropic =    30.9154   Anisotropy =    15.2849

     81  H    Isotropic =    31.7224   Anisotropy =    11.8903

     82  H    Isotropic =    29.9859   Anisotropy =     7.9186

     83  H    Isotropic =    29.9471   Anisotropy =    12.5282

     84  H    Isotropic =    24.7581   Anisotropy =    14.1610

     85  H    Isotropic =    25.6968   Anisotropy =     6.5672

     86  H    Isotropic =    26.6749   Anisotropy =     7.9850

     87  H    Isotropic =    30.6793   Anisotropy =     6.4375

     88  H    Isotropic =    32.1343   Anisotropy =    14.1769

     89  H    Isotropic =    32.7790   Anisotropy =     8.8472

     90  H    Isotropic =    32.4269   Anisotropy =    13.3496

     91  H    Isotropic =    32.2505   Anisotropy =    15.6388

     92  H    Isotropic =    30.7109   Anisotropy =    11.7171

     93  H    Isotropic =    30.8473   Anisotropy =    13.0606

     94  H    Isotropic =    32.2814   Anisotropy =    17.8602

     95  H    Isotropic =    32.5344   Anisotropy =     9.6862

     96  H    Isotropic =    32.4620   Anisotropy =    13.0098

     97  H    Isotropic =    32.3979   Anisotropy =    15.2615

     98  H    Isotropic =    32.1466   Anisotropy =    14.7761

     99  H    Isotropic =    33.0421   Anisotropy =    10.3983

    100  H    Isotropic =    31.5023   Anisotropy =     7.4561

    101  H    Isotropic =    31.1126   Anisotropy =    16.0600

    102  H    Isotropic =    31.6305   Anisotropy =     8.8502

    103  H    Isotropic =    32.1808   Anisotropy =    15.0917

    104  H    Isotropic =    31.1619   Anisotropy =    13.1058

    105  H    Isotropic =    30.7013   Anisotropy =     7.3760

    106  H    Isotropic =    30.5918   Anisotropy =    11.6484

    107  H    Isotropic =    30.5347   Anisotropy =    12.2241

    108  H    Isotropic =    30.9693   Anisotropy =    10.9950

    109  H    Isotropic =    30.7199   Anisotropy =    14.4388

    110  H    Isotropic =    31.9113   Anisotropy =    12.1893

 The electronic state is 1-A.
 Alpha  occ. eigenvalues --  -20.31429 -20.28989 -20.25314 -20.23421 -19.92292
 Alpha  occ. eigenvalues --  -15.48223 -15.33889 -15.32176 -15.28691 -11.17356
 Alpha  occ. eigenvalues --  -11.14949 -11.11108 -11.10320 -11.09705 -11.09506
 Alpha  occ. eigenvalues --  -11.09438 -11.09115 -11.08284 -11.07885 -11.07537
 Alpha  occ. eigenvalues --  -11.07341 -11.07123 -11.07095 -11.06475 -11.06045
 Alpha  occ. eigenvalues --  -11.05811 -11.05458 -11.05268 -11.05258 -11.05250
 Alpha  occ. eigenvalues --  -11.05195 -11.05135 -11.04779 -11.04738 -11.04394
 Alpha  occ. eigenvalues --  -11.03985 -11.03809 -11.03501 -11.02814 -11.02605
 Alpha  occ. eigenvalues --  -11.02573 -11.02398 -11.02364 -11.02357 -11.01475
 Alpha  occ. eigenvalues --  -11.01415 -11.01291 -11.01020 -11.01008 -11.00798
 Alpha  occ. eigenvalues --  -11.00548 -11.00481 -11.00150 -11.00055  -1.38607
 Alpha  occ. eigenvalues --   -1.36428  -1.28640  -1.28430  -1.26097  -1.21392
 Alpha  occ. eigenvalues --   -1.20159  -1.17855  -1.12181  -1.08404  -1.07822
 Alpha  occ. eigenvalues --   -1.06869  -1.06225  -1.03722  -1.03271  -1.00871
 Alpha  occ. eigenvalues --   -0.99559  -0.98752  -0.97776  -0.97005  -0.96541
 Alpha  occ. eigenvalues --   -0.95214  -0.95015  -0.93241  -0.92771  -0.92407
 Alpha  occ. eigenvalues --   -0.91981  -0.90767  -0.89653  -0.89206  -0.87724
 Alpha  occ. eigenvalues --   -0.85995  -0.84136  -0.83171  -0.82167  -0.80894
 Alpha  occ. eigenvalues --   -0.80306  -0.79147  -0.78448  -0.77921  -0.75704
 Alpha  occ. eigenvalues --   -0.75551  -0.74644  -0.72745  -0.72580  -0.71846
 Alpha  occ. eigenvalues --   -0.71114  -0.70576  -0.69129  -0.68232  -0.67153
 Alpha  occ. eigenvalues --   -0.66048  -0.64245  -0.63540  -0.63322  -0.63034
 Alpha  occ. eigenvalues --   -0.62196  -0.62133  -0.61875  -0.61387  -0.61100
 Alpha  occ. eigenvalues --   -0.59993  -0.59776  -0.59243  -0.58736  -0.58627
 Alpha  occ. eigenvalues --   -0.58405  -0.57855  -0.57586  -0.56987  -0.56648
 Alpha  occ. eigenvalues --   -0.56371  -0.56001  -0.55942  -0.55482  -0.55432
 Alpha  occ. eigenvalues --   -0.55364  -0.54693  -0.54551  -0.54009  -0.53612
 Alpha  occ. eigenvalues --   -0.53433  -0.52842  -0.52537  -0.52230  -0.52189
 Alpha  occ. eigenvalues --   -0.52057  -0.51119  -0.50795  -0.50190  -0.50086
 Alpha  occ. eigenvalues --   -0.49798  -0.49461  -0.49085  -0.48800  -0.48569
 Alpha  occ. eigenvalues --   -0.48294  -0.48036  -0.47579  -0.47192  -0.46863
 Alpha  occ. eigenvalues --   -0.46364  -0.46118  -0.45718  -0.45514  -0.45267
 Alpha  occ. eigenvalues --   -0.44902  -0.44658  -0.44413  -0.43820  -0.43585
 Alpha  occ. eigenvalues --   -0.43331  -0.42877  -0.42640  -0.42476  -0.41790
 Alpha  occ. eigenvalues --   -0.41632  -0.41258  -0.41044  -0.40564  -0.40158
 Alpha  occ. eigenvalues --   -0.39817  -0.39649  -0.39026  -0.38705  -0.37812
 Alpha  occ. eigenvalues --   -0.36555  -0.35926  -0.35841  -0.34796  -0.34474
 Alpha  occ. eigenvalues --   -0.33980  -0.32630  -0.32380  -0.31837  -0.30246
 Alpha  occ. eigenvalues --   -0.26514  -0.26150  -0.25593  -0.21010  -0.19156
 Alpha  occ. eigenvalues --   -0.16217  -0.16036
 Alpha virt. eigenvalues --    0.27239   0.27802   0.28689   0.29632   0.30319
 Alpha virt. eigenvalues --    0.32347   0.46415   0.47057   0.48857   0.49922
 Alpha virt. eigenvalues --    0.50087   0.50438   0.50892   0.51241   0.52551

 Mulliken charges:
               1
     1  C   -0.074497
     2  C   -0.000771
     3  C   -0.062880
     4  C   -0.092071
     5  C    0.094146
     6  C   -0.012636
     7  N   -0.282487
     8  C    0.016154
     9  C    0.131486
    10  C    0.033791
    11  C   -0.114863
    12  C   -0.107775
    13  C    0.041962
    14  N   -0.294139
    15  C   -0.015322
    16  C   -0.093774
    17  C   -0.099913
    18  C   -0.094939
    19  C   -0.016228
    20  C   -0.099671
    21  C   -0.062767
    22  C    0.313866
    23  O   -0.266314
    24  O   -0.261494
    25  C   -0.056872
    26  C   -0.076463
    27  C   -0.108929
    28  C    0.000498
    29  C   -0.073137
    30  C   -0.060844
    31  C   -0.091559
    32  C    0.087726
    33  C   -0.015678
    34  N   -0.287870
    35  C    0.020784
    36  C    0.128853
    37  C    0.040637
    38  C   -0.115650
    39  C   -0.104802
    40  C    0.028220
    41  N   -0.085903
    42  C   -0.007737
    43  C   -0.110733
    44  C   -0.102241
    45  C   -0.106533
    46  C   -0.012617
    47  C   -0.111630
    48  C   -0.067118
    49  C    0.320536
    50  O   -0.279068
    51  O   -0.253915
    52  C   -0.055664
    53  C   -0.078725
    54  O   -0.456594
    55  H    0.064643
    56  H    0.053207
    57  H    0.056371
    58  H    0.065404
    59  H    0.045624
    60  H    0.054487
    61  H    0.044826
    62  H    0.051572
    63  H    0.053051
    64  H    0.054948
    65  H    0.046146
    66  H    0.051361
    67  H    0.050900
    68  H    0.046876
    69  H    0.059769
    70  H    0.059041
    71  H    0.043013
    72  H    0.056625
    73  H    0.050012
    74  H    0.072675
    75  H    0.061011
    76  H    0.074639
    77  H    0.072817
    78  H    0.071227
    79  H    0.054007
    80  H    0.073717
    81  H    0.068695
    82  H    0.058416
    83  H    0.055407
    84  H    0.088466
    85  H    0.056138
    86  H    0.056847
    87  H    0.086143
    88  H    0.053057
    89  H    0.058594
    90  H    0.054175
    91  H    0.051767
    92  H    0.088609
    93  H    0.080125
    94  H    0.066157
    95  H    0.057639
    96  H    0.056885
    97  H    0.057737
    98  H    0.082272
    99  H    0.071872
   100  H    0.068841
   101  H    0.087327
   102  H    0.065864
   103  H    0.055223
   104  H    0.067259
   105  H    0.075747
   106  H    0.073073
   107  H    0.079099
   108  H    0.075002
   109  H    0.073580
   110  H    0.056180
 Sum of Mulliken charges =  -0.00000

 Dipole moment (field-independent basis, Debye):
    X=             -6.3545    Y=             -2.2892    Z=              1.5599  Tot=              6.9321
 Quadrupole moment (field-independent basis, Debye-Ang):
   XX=           -278.3553   YY=           -294.4970   ZZ=           -293.1859
   XY=             -1.5809   XZ=              6.8614   YZ=              7.4627

 Summary of Natural Population Analysis:

                                       Natural Population
                Natural  -----------------------------------------------
    Atom  No    Charge         Core      Valence    Rydberg      Total
 -----------------------------------------------------------------------
      C    1   -0.05677      1.99992     4.05684    0.00000     6.05677
      C    2    0.01203      1.99990     3.98807    0.00000     5.98797
      C    3   -0.03404      1.99994     4.03409    0.00000     6.03404
      C    4   -0.09043      1.99993     4.09049    0.00000     6.09043
      C    5    0.11902      1.99985     3.88113    0.00000     5.88098
      C    6   -0.02264      1.99990     4.02274    0.00000     6.02264
      N    7   -0.27185      1.99998     5.27187    0.00000     7.27185
      C    8    0.01573      1.99996     3.98431    0.00000     5.98427
      C    9    0.17427      1.99996     3.82577    0.00000     5.82573
      C   10    0.06517      1.99993     3.93490    0.00000     5.93483
      C   11   -0.08430      1.99994     4.08436    0.00000     6.08430
      C   12   -0.07793      1.99996     4.07797    0.00000     6.07793
      C   13    0.06327      1.99998     3.93676    0.00000     5.93673
      N   14   -0.28298      1.99999     5.28299    0.00000     7.28298
      C   15    0.03876      1.99994     3.96130    0.00000     5.96124
      C   16   -0.05626      1.99996     4.05630    0.00000     6.05626
      C   17   -0.06381      1.99995     4.06386    0.00000     6.06381
      C   18   -0.06170      1.99994     4.06175    0.00000     6.06170
      C   19    0.03729      1.99995     3.96276    0.00000     5.96271
      C   20   -0.06129      1.99992     4.06137    0.00000     6.06129
      C   21   -0.07807      1.99994     4.07813    0.00000     6.07807
      C   22    0.39556      1.99990     3.60453    0.00000     5.60444
      O   23   -0.29977      1.99999     6.29978    0.00000     8.29977
      O   24   -0.27366      1.99999     6.27367    0.00000     8.27366
      C   25    0.03359      1.99984     3.96657    0.00000     5.96641
      C   26   -0.01439      1.99993     4.01447    0.00000     6.01439
      C   27   -0.08528      1.99996     4.08533    0.00000     6.08528
      C   28    0.01435      1.99990     3.98575    0.00000     5.98565
      C   29   -0.05249      1.99993     4.05256    0.00000     6.05249
      C   30   -0.03162      1.99994     4.03168    0.00000     6.03162
      C   31   -0.08942      1.99993     4.08949    0.00000     6.08942
      C   32    0.11109      1.99986     3.88905    0.00000     5.88891
      C   33   -0.03053      1.99990     4.03063    0.00000     6.03053
      N   34   -0.27640      1.99998     5.27642    0.00000     7.27640
      C   35    0.02198      1.99996     3.97806    0.00000     5.97802
      C   36    0.17162      1.99996     3.82842    0.00000     5.82838
      C   37    0.07334      1.99991     3.92675    0.00000     5.92666
      C   38   -0.08621      1.99994     4.08627    0.00000     6.08621
      C   39   -0.07257      1.99995     4.07262    0.00000     6.07257
      C   40    0.05010      1.99998     3.94993    0.00000     5.94990
      N   41    0.02612      1.99999     4.97389    0.00000     6.97388
      C   42    0.04360      1.99991     3.95649    0.00000     5.95640
      C   43   -0.08110      1.99997     4.08113    0.00000     6.08110
      C   44   -0.06991      1.99996     4.06996    0.00000     6.06991
      C   45   -0.08064      1.99994     4.08070    0.00000     6.08064
      C   46    0.03790      1.99992     3.96218    0.00000     5.96210
      C   47   -0.07539      1.99992     4.07546    0.00000     6.07539
      C   48   -0.08599      1.99995     4.08605    0.00000     6.08599
      C   49    0.40396      1.99991     3.59613    0.00000     5.59604
      O   50   -0.31349      1.99999     6.31350    0.00000     8.31349
      O   51   -0.26528      1.99999     6.26529    0.00000     8.26528
      C   52    0.03484      1.99984     3.96532    0.00000     5.96516
      C   53   -0.01581      1.99992     4.01589    0.00000     6.01581
      O   54   -0.50748      2.00000     6.50748    0.00000     8.50748
      H   55    0.03894      0.00000     0.96106    0.00000     0.96106
      H   56    0.02621      0.00000     0.97379    0.00000     0.97379
      H   57    0.03258      0.00000     0.96742    0.00000     0.96742
      H   58    0.03277      0.00000     0.96723    0.00000     0.96723
      H   59    0.02387      0.00000     0.97613    0.00000     0.97613
      H   60    0.03148      0.00000     0.96852    0.00000     0.96852
      H   61    0.02478      0.00000     0.97522    0.00000     0.97522
      H   62    0.03098      0.00000     0.96902    0.00000     0.96902
      H   63    0.02424      0.00000     0.97576    0.00000     0.97576
      H   64    0.02939      0.00000     0.97061    0.00000     0.97061
      H   65    0.02511      0.00000     0.97489    0.00000     0.97489
      H   66    0.02958      0.00000     0.97042    0.00000     0.97042
      H   67    0.02896      0.00000     0.97104    0.00000     0.97104
      H   68    0.02550      0.00000     0.97450    0.00000     0.97450
      H   69    0.03621      0.00000     0.96379    0.00000     0.96379
      H   70    0.03669      0.00000     0.96331    0.00000     0.96331
      H   71    0.01523      0.00000     0.98477    0.00000     0.98477
      H   72    0.03073      0.00000     0.96927    0.00000     0.96927
      H   73    0.02660      0.00000     0.97340    0.00000     0.97340
      H   74    0.04686      0.00000     0.95314    0.00000     0.95314
      H   75    0.03823      0.00000     0.96177    0.00000     0.96177
      H   76    0.04386      0.00000     0.95614    0.00000     0.95614
      H   77    0.04155      0.00000     0.95845    0.00000     0.95845
      H   78    0.03988      0.00000     0.96012    0.00000     0.96012
      H   79    0.02864      0.00000     0.97136    0.00000     0.97136
      H   80    0.04948      0.00000     0.95052    0.00000     0.95052
      H   81    0.04525      0.00000     0.95475    0.00000     0.95475
      H   82    0.03977      0.00000     0.96023    0.00000     0.96023
      H   83    0.03649      0.00000     0.96351    0.00000     0.96351
      H   84    0.05945      0.00000     0.94055    0.00000     0.94055
      H   85    0.02885      0.00000     0.97115    0.00000     0.97115
      H   86    0.03298      0.00000     0.96702    0.00000     0.96702
      H   87    0.05011      0.00000     0.94989    0.00000     0.94989
      H   88    0.03071      0.00000     0.96929    0.00000     0.96929
      H   89    0.03526      0.00000     0.96474    0.00000     0.96474
      H   90    0.03249      0.00000     0.96751    0.00000     0.96751
      H   91    0.03037      0.00000     0.96963    0.00000     0.96963
      H   92    0.05691      0.00000     0.94309    0.00000     0.94309
      H   93    0.04958      0.00000     0.95042    0.00000     0.95042
      H   94    0.04638      0.00000     0.95362    0.00000     0.95362
      H   95    0.03695      0.00000     0.96305    0.00000     0.96305
      H   96    0.03573      0.00000     0.96427    0.00000     0.96427
      H   97    0.03678      0.00000     0.96322    0.00000     0.96322
      H   98    0.05912      0.00000     0.94088    0.00000     0.94088
      H   99    0.04874      0.00000     0.95126    0.00000     0.95126
      H  100    0.03694      0.00000     0.96306    0.00000     0.96306
      H  101    0.05663      0.00000     0.94337    0.00000     0.94337
      H  102    0.04075      0.00000     0.95925    0.00000     0.95925
      H  103    0.03309      0.00000     0.96691    0.00000     0.96691
      H  104    0.04448      0.00000     0.95552    0.00000     0.95552
      H  105    0.04413      0.00000     0.95587    0.00000     0.95587
      H  106    0.04143      0.00000     0.95857    0.00000     0.95857
      H  107    0.04783      0.00000     0.95217    0.00000     0.95217
      H  108    0.05064      0.00000     0.94936    0.00000     0.94936
      H  109    0.04908      0.00000     0.95092    0.00000     0.95092
      H  110    0.03065      0.00000     0.96935    0.00000     0.96935
 =======================================================================
   * Total *   -0.00000    107.99668   286.00332    0.00000   394.00000

 Normal termination of Gaussian 16 at Thu May 30 09:23:41 2024.
