 Gaussian 16, Revision B.01,
 Gaussian 16:  ES64L-G16RevB.01 20-Dec-2017

 ----------------------------------------------
 # nmr=giao hf/sto-3g pop=nbo geom=connectivity
 ----------------------------------------------

 ------------------
 pleiokomenine_C_1a
 ------------------
 Symbolic Z-matrix:
 Charge =  0 Multiplicity = 1

                         Standard orientation:
 ---------------------------------------------------------------------
 Center     Atomic      Atomic             Coordinates (Angstroms)
 Number     Number       Type             X           Y           Z
 ---------------------------------------------------------------------
      1          6           0        1.666700    2.354203   -0.309019
      2          6           0        1.332173    3.498441    0.429775
      3          6           0        2.201291    3.931780    1.455386
      4          6           0        3.354275    3.210750    1.793045
      5          6           0        3.628737    2.037753    1.114308
      6          6           0        2.789061    1.629919    0.059109
      7          7           0        4.676402    1.101300    1.359580
      8          6           0        3.364747    0.372399   -0.541403
      9          6           0        4.120749   -0.132022    0.741430
     10          6           0        2.463128   -0.752098   -1.055342
     11          6           0        3.063194   -0.770572    1.757464
     12          6           0        2.288599   -1.926275    1.122518
     13          6           0        2.731147   -2.094012   -0.335033
     14          7           0        2.886215   -0.942528   -2.442707
     15          6           0        1.985535   -1.787766   -3.190356
     16          6           0        2.073264   -3.194363   -2.573945
     17          6           0        1.915567   -3.202650   -1.041877
     18          6           0        4.130489    0.838669   -1.806592
     19          6           0        3.249664    0.354567   -2.961439
     20          6           0        4.268921   -2.407512   -0.313271
     21          6           0        5.081096   -1.301344    0.437810
     22          6           0        6.386770   -0.964593   -0.264222
     23          8           0        6.734301   -1.396557   -1.356514
     24          8           0        7.179337   -0.191893    0.530114
     25          6           0        8.416680    0.190664   -0.068778
     26          6           0        5.224768    1.080976    2.707187
     27          6           0        0.082807    4.305295    0.125130
     28          6           0       -1.138988    3.515177   -0.307130
     29          6           0       -1.519008    2.343488    0.365055
     30          6           0       -1.937205    3.985474   -1.369998
     31          6           0       -3.068381    3.279706   -1.798657
     32          6           0       -3.391736    2.086888   -1.174777
     33          6           0       -2.621241    1.635247   -0.089950
     34          7           0       -4.437937    1.184594   -1.503382
     35          6           0       -3.223835    0.358780    0.445733
     36          6           0       -3.968583   -0.076248   -0.883535
     37          6           0       -2.322620   -0.800338    0.910705
     38          6           0       -2.916932   -0.774775   -1.855043
     39          6           0       -2.328307   -2.041383   -1.221049
     40          6           0       -2.802485   -2.134310    0.243755
     41          7           0       -2.374054   -0.768893    2.428022
     42          6           0       -1.963720   -2.061826    3.082427
     43          6           0       -2.499510   -3.325332    2.438773
     44          6           0       -2.183093   -3.345212    0.948351
     45          6           0       -4.052569    0.744428    1.697316
     46          6           0       -3.763177   -0.317046    2.751166
     47          6           0       -4.358779   -2.299776    0.156215
     48          6           0       -5.033911   -1.155676   -0.640441
     49          6           0       -6.335343   -0.706851    0.000263
     50          8           0       -6.656729   -0.941871    1.158997
     51          8           0       -7.128082   -0.070471   -0.904268
     52          6           0       -8.355858    0.420119   -0.365705
     53          6           0       -4.927197    1.221356   -2.873795
     54          8           0       -1.484581    0.187519    2.894191
     55          1           0        1.047157    2.022508   -1.136249
     56          1           0        1.970343    4.835836    2.015468
     57          1           0        3.991622    3.562876    2.595363
     58          1           0        1.403254   -0.468343   -0.994985
     59          1           0        3.579300   -1.138958    2.654160
     60          1           0        2.343403   -0.031679    2.131030
     61          1           0        2.461082   -2.849071    1.690147
     62          1           0        1.212123   -1.722256    1.184001
     63          1           0        0.955507   -1.412833   -3.160693
     64          1           0        2.287276   -1.846728   -4.242094
     65          1           0        1.310653   -3.840725   -3.023593
     66          1           0        3.045161   -3.636487   -2.829222
     67          1           0        0.851423   -3.063521   -0.815461
     68          1           0        2.187363   -4.189857   -0.649583
     69          1           0        5.111670    0.374716   -1.894199
     70          1           0        4.289319    1.921508   -1.874661
     71          1           0        2.380126    1.004484   -3.110160
     72          1           0        3.818370    0.291885   -3.893937
     73          1           0        4.434482   -3.365544    0.198348
     74          1           0        4.640549   -2.557150   -1.332267
     75          1           0        5.408419   -1.752363    1.387258
     76          1           0        8.241887    0.736723   -1.001251
     77          1           0        8.938441    0.853965    0.626578
     78          1           0        9.043323   -0.689062   -0.244762
     79          1           0        4.443420    1.009630    3.472112
     80          1           0        5.814463    1.985276    2.892231
     81          1           0        5.898748    0.228809    2.837992
     82          1           0        0.352554    5.028469   -0.655222
     83          1           0       -0.209163    4.883739    1.011158
     84          1           0       -0.955433    1.987337    1.225380
     85          1           0       -1.676335    4.912343   -1.876801
     86          1           0       -3.660126    3.667594   -2.619517
     87          1           0       -1.263755   -0.628680    0.670397
     88          1           0       -3.391493   -1.043329   -2.807626
     89          1           0       -2.095825   -0.097577   -2.121659
     90          1           0       -1.234388   -2.007167   -1.285008
     91          1           0       -2.641907   -2.925867   -1.789776
     92          1           0       -0.866494   -2.072988    3.042028
     93          1           0       -2.264975   -1.984561    4.133185
     94          1           0       -2.034564   -4.195460    2.916967
     95          1           0       -3.574871   -3.419416    2.615439
     96          1           0       -1.094079   -3.343628    0.812544
     97          1           0       -2.550041   -4.279714    0.507160
     98          1           0       -3.712290    1.704326    2.111776
     99          1           0       -5.116387    0.889338    1.515702
    100          1           0       -4.427809   -1.176594    2.699414
    101          1           0       -3.764527    0.080439    3.771323
    102          1           0       -4.802416   -2.425450    1.143203
    103          1           0       -4.586186   -3.244494   -0.359166
    104          1           0       -5.342222   -1.587177   -1.604992
    105          1           0       -8.882671    0.957620   -1.158993
    106          1           0       -8.164791    1.117202    0.456387
    107          1           0       -8.984872   -0.411031   -0.032418
    108          1           0       -5.616277    0.392712   -3.062694
    109          1           0       -5.484215    2.146677   -3.055827
    110          1           0       -4.112979    1.151966   -3.604056
 ---------------------------------------------------------------------

 SCF Done:  E(RHF) =  -2300.21763852     A.U. after   16 cycles

      1  C    Isotropic =   126.8968   Anisotropy =   151.7066

      2  C    Isotropic =   118.0826   Anisotropy =   161.0446

      3  C    Isotropic =   118.5343   Anisotropy =   152.4397

      4  C    Isotropic =   133.0994   Anisotropy =   144.2871

      5  C    Isotropic =   107.9960   Anisotropy =   128.9101

      6  C    Isotropic =   118.0199   Anisotropy =   142.3971

      7  N    Isotropic =   271.8589   Anisotropy =    81.0974

      8  C    Isotropic =   198.5097   Anisotropy =    14.3184

      9  C    Isotropic =   180.0460   Anisotropy =    43.4568

     10  C    Isotropic =   189.1262   Anisotropy =    30.7648

     11  C    Isotropic =   212.7091   Anisotropy =    21.5853

     12  C    Isotropic =   214.3611   Anisotropy =    16.9863

     13  C    Isotropic =   211.0689   Anisotropy =     7.8631

     14  N    Isotropic =   301.0878   Anisotropy =    58.7836

     15  C    Isotropic =   202.6321   Anisotropy =    37.5847

     16  C    Isotropic =   219.6099   Anisotropy =     7.7747

     17  C    Isotropic =   214.1236   Anisotropy =    20.8796

     18  C    Isotropic =   209.6535   Anisotropy =    30.8366

     19  C    Isotropic =   200.0919   Anisotropy =    40.5554

     20  C    Isotropic =   212.2460   Anisotropy =    22.7678

     21  C    Isotropic =   208.1822   Anisotropy =    12.6226

     22  C    Isotropic =    96.8220   Anisotropy =    98.3957

     23  O    Isotropic =  -135.7776   Anisotropy =   886.7275

     24  O    Isotropic =   284.5216   Anisotropy =   138.2417

     25  C    Isotropic =   197.3691   Anisotropy =    58.0323

     26  C    Isotropic =   209.6149   Anisotropy =    41.5987

     27  C    Isotropic =   206.3616   Anisotropy =    22.6415

     28  C    Isotropic =   117.6991   Anisotropy =   162.2093

     29  C    Isotropic =   121.0029   Anisotropy =   161.9249

     30  C    Isotropic =   118.1933   Anisotropy =   152.5252

     31  C    Isotropic =   134.4570   Anisotropy =   141.9000

     32  C    Isotropic =   109.2125   Anisotropy =   127.1121

     33  C    Isotropic =   119.6918   Anisotropy =   136.5235

     34  N    Isotropic =   275.0661   Anisotropy =    81.0564

     35  C    Isotropic =   195.4699   Anisotropy =    14.4680

     36  C    Isotropic =   181.4494   Anisotropy =    43.8324

     37  C    Isotropic =   179.9963   Anisotropy =    44.4513

     38  C    Isotropic =   213.7588   Anisotropy =    20.0988

     39  C    Isotropic =   212.7782   Anisotropy =    19.5701

     40  C    Isotropic =   212.1841   Anisotropy =     8.8090

     41  N    Isotropic =   234.9319   Anisotropy =    24.8304

     42  C    Isotropic =   195.0373   Anisotropy =    47.9727

     43  C    Isotropic =   223.0887   Anisotropy =     9.5656

     44  C    Isotropic =   215.9451   Anisotropy =    17.2748

     45  C    Isotropic =   211.2834   Anisotropy =    37.6003

     46  C    Isotropic =   191.7950   Anisotropy =    54.1122

     47  C    Isotropic =   212.6289   Anisotropy =    23.1214

     48  C    Isotropic =   209.5779   Anisotropy =    11.3256

     49  C    Isotropic =    96.1734   Anisotropy =    98.9648

     50  O    Isotropic =  -133.8412   Anisotropy =   886.7190

     51  O    Isotropic =   283.3134   Anisotropy =   138.9388

     52  C    Isotropic =   197.1582   Anisotropy =    58.3501

     53  C    Isotropic =   209.8461   Anisotropy =    41.3220

     54  O    Isotropic =     5.4007   Anisotropy =   513.4438

     55  H    Isotropic =    27.0819   Anisotropy =    14.8621

     56  H    Isotropic =    25.6295   Anisotropy =     6.3209

     57  H    Isotropic =    26.3786   Anisotropy =     7.8067

     58  H    Isotropic =    32.4687   Anisotropy =    13.0731

     59  H    Isotropic =    32.0463   Anisotropy =    12.6261

     60  H    Isotropic =    32.6926   Anisotropy =     7.8797

     61  H    Isotropic =    32.2897   Anisotropy =    13.4012

     62  H    Isotropic =    32.5811   Anisotropy =    18.9889

     63  H    Isotropic =    32.8248   Anisotropy =    12.1338

     64  H    Isotropic =    31.8717   Anisotropy =    15.2026

     65  H    Isotropic =    32.5630   Anisotropy =    15.5084

     66  H    Isotropic =    31.8909   Anisotropy =    14.4955

     67  H    Isotropic =    32.7840   Anisotropy =    16.7068

     68  H    Isotropic =    32.3119   Anisotropy =    13.5911

     69  H    Isotropic =    32.4679   Anisotropy =    13.1779

     70  H    Isotropic =    33.0122   Anisotropy =    11.5558

     71  H    Isotropic =    32.5693   Anisotropy =    11.0621

     72  H    Isotropic =    32.0652   Anisotropy =    16.3985

     73  H    Isotropic =    32.0314   Anisotropy =    14.7866

     74  H    Isotropic =    30.3754   Anisotropy =    11.0167

     75  H    Isotropic =    31.1931   Anisotropy =    12.5084

     76  H    Isotropic =    30.5683   Anisotropy =     8.1381

     77  H    Isotropic =    30.4809   Anisotropy =    12.0733

     78  H    Isotropic =    30.4935   Anisotropy =    12.1381

     79  H    Isotropic =    31.7193   Anisotropy =    10.6556

     80  H    Isotropic =    30.6192   Anisotropy =    15.1344

     81  H    Isotropic =    30.8091   Anisotropy =    11.0405

     82  H    Isotropic =    30.1298   Anisotropy =    11.9821

     83  H    Isotropic =    29.9693   Anisotropy =    11.7450

     84  H    Isotropic =    25.4951   Anisotropy =    15.2684

     85  H    Isotropic =    25.6628   Anisotropy =     6.0312

     86  H    Isotropic =    26.5522   Anisotropy =     7.9139

     87  H    Isotropic =    31.0440   Anisotropy =    13.2585

     88  H    Isotropic =    32.1369   Anisotropy =    12.7329

     89  H    Isotropic =    32.8996   Anisotropy =     9.0387

     90  H    Isotropic =    32.5299   Anisotropy =    18.9196

     91  H    Isotropic =    32.2998   Anisotropy =    13.4646

     92  H    Isotropic =    30.9408   Anisotropy =    12.8507

     93  H    Isotropic =    30.9671   Anisotropy =    13.9855

     94  H    Isotropic =    32.3717   Anisotropy =    17.4094

     95  H    Isotropic =    32.6045   Anisotropy =    12.0622

     96  H    Isotropic =    32.5567   Anisotropy =    15.4396

     97  H    Isotropic =    32.4617   Anisotropy =    13.8085

     98  H    Isotropic =    31.7302   Anisotropy =    11.3789

     99  H    Isotropic =    32.8849   Anisotropy =    12.2404

    100  H    Isotropic =    31.5316   Anisotropy =     9.1888

    101  H    Isotropic =    31.0720   Anisotropy =    15.3898

    102  H    Isotropic =    31.6315   Anisotropy =    10.2461

    103  H    Isotropic =    32.2044   Anisotropy =    14.3600

    104  H    Isotropic =    31.1626   Anisotropy =    12.4514

    105  H    Isotropic =    30.4840   Anisotropy =    12.2751

    106  H    Isotropic =    30.6142   Anisotropy =     8.0250

    107  H    Isotropic =    30.5527   Anisotropy =    11.7924

    108  H    Isotropic =    30.8961   Anisotropy =    10.8208

    109  H    Isotropic =    30.6618   Anisotropy =    14.9921

    110  H    Isotropic =    31.8446   Anisotropy =    10.9232

 The electronic state is 1-A.
 Alpha  occ. eigenvalues --  -20.31389 -20.29673 -20.25281 -20.23652 -19.91758
 Alpha  occ. eigenvalues --  -15.47947 -15.33895 -15.32684 -15.29875 -11.17311
 Alpha  occ. eigenvalues --  -11.15552 -11.11073 -11.10283 -11.09813 -11.09423
 Alpha  occ. eigenvalues --  -11.09281 -11.08835 -11.08557 -11.08277 -11.07441
 Alpha  occ. eigenvalues --  -11.07311 -11.07042 -11.06978 -11.06899 -11.06446
 Alpha  occ. eigenvalues --  -11.06301 -11.06289 -11.05921 -11.05738 -11.05576
 Alpha  occ. eigenvalues --  -11.05497 -11.05220 -11.05104 -11.04997 -11.04853
 Alpha  occ. eigenvalues --  -11.04767 -11.04673 -11.03874 -11.03829 -11.03791
 Alpha  occ. eigenvalues --  -11.03335 -11.03240 -11.03166 -11.02780 -11.01502
 Alpha  occ. eigenvalues --  -11.01461 -11.01396 -11.01300 -11.01124 -11.01073
 Alpha  occ. eigenvalues --  -11.01029 -11.00875 -11.00858 -11.00585  -1.38573
 Alpha  occ. eigenvalues --   -1.36942  -1.28477  -1.28324  -1.26626  -1.21395
 Alpha  occ. eigenvalues --   -1.20941  -1.18764  -1.12107  -1.08761  -1.08266
 Alpha  occ. eigenvalues --   -1.06992  -1.06385  -1.04474  -1.03437  -1.00843
 Alpha  occ. eigenvalues --   -0.99943  -0.98781  -0.98064  -0.97573  -0.96712
 Alpha  occ. eigenvalues --   -0.95865  -0.94774  -0.93873  -0.93272  -0.92359
 Alpha  occ. eigenvalues --   -0.91998  -0.91188  -0.90732  -0.89360  -0.87841
 Alpha  occ. eigenvalues --   -0.86397  -0.84726  -0.83113  -0.82421  -0.80875
 Alpha  occ. eigenvalues --   -0.80831  -0.79006  -0.78976  -0.78158  -0.76641
 Alpha  occ. eigenvalues --   -0.76450  -0.74587  -0.73545  -0.72548  -0.72391
 Alpha  occ. eigenvalues --   -0.71268  -0.70524  -0.69688  -0.68836  -0.67063
 Alpha  occ. eigenvalues --   -0.65981  -0.64701  -0.64235  -0.63830  -0.63071
 Alpha  occ. eigenvalues --   -0.62868  -0.61997  -0.61850  -0.61549  -0.61067
 Alpha  occ. eigenvalues --   -0.60616  -0.59928  -0.59669  -0.59224  -0.59084
 Alpha  occ. eigenvalues --   -0.58424  -0.57873  -0.57841  -0.57522  -0.57314
 Alpha  occ. eigenvalues --   -0.56922  -0.56528  -0.56140  -0.55931  -0.55658
 Alpha  occ. eigenvalues --   -0.55332  -0.54907  -0.54466  -0.53970  -0.53827
 Alpha  occ. eigenvalues --   -0.53617  -0.53255  -0.53127  -0.52641  -0.52446
 Alpha  occ. eigenvalues --   -0.52214  -0.51445  -0.51160  -0.50877  -0.50656
 Alpha  occ. eigenvalues --   -0.50233  -0.49951  -0.49763  -0.48985  -0.48672
 Alpha  occ. eigenvalues --   -0.48444  -0.48072  -0.47633  -0.47213  -0.47138
 Alpha  occ. eigenvalues --   -0.46728  -0.46382  -0.46195  -0.46029  -0.45751
 Alpha  occ. eigenvalues --   -0.45338  -0.45059  -0.44663  -0.44547  -0.43859
 Alpha  occ. eigenvalues --   -0.43410  -0.43287  -0.42944  -0.42793  -0.42469
 Alpha  occ. eigenvalues --   -0.42353  -0.41768  -0.41270  -0.41046  -0.40421
 Alpha  occ. eigenvalues --   -0.40150  -0.39766  -0.39138  -0.38858  -0.37721
 Alpha  occ. eigenvalues --   -0.37392  -0.36814  -0.35615  -0.35362  -0.34693
 Alpha  occ. eigenvalues --   -0.33931  -0.33249  -0.32429  -0.32361  -0.30962
 Alpha  occ. eigenvalues --   -0.27083  -0.26640  -0.25994  -0.21100  -0.19894
 Alpha  occ. eigenvalues --   -0.15650  -0.15472
 Alpha virt. eigenvalues --    0.27278   0.28201   0.28388   0.29043   0.29703
 Alpha virt. eigenvalues --    0.31515   0.46366   0.47196   0.49019   0.49396
 Alpha virt. eigenvalues --    0.49482   0.50182   0.50648   0.51334   0.52554

 Mulliken charges:
               1
     1  C   -0.076163
     2  C    0.002562
     3  C   -0.061439
     4  C   -0.088810
     5  C    0.089501
     6  C   -0.013240
     7  N   -0.282567
     8  C    0.015341
     9  C    0.129323
    10  C    0.041172
    11  C   -0.115906
    12  C   -0.107702
    13  C    0.040973
    14  N   -0.294091
    15  C   -0.011637
    16  C   -0.095754
    17  C   -0.100703
    18  C   -0.099330
    19  C   -0.013464
    20  C   -0.104127
    21  C   -0.064008
    22  C    0.318263
    23  O   -0.275524
    24  O   -0.255526
    25  C   -0.055181
    26  C   -0.079419
    27  C   -0.109806
    28  C   -0.002184
    29  C   -0.072709
    30  C   -0.062082
    31  C   -0.093020
    32  C    0.087916
    33  C   -0.015935
    34  N   -0.287594
    35  C    0.021278
    36  C    0.128706
    37  C    0.041098
    38  C   -0.115682
    39  C   -0.105524
    40  C    0.027924
    41  N   -0.085152
    42  C   -0.007689
    43  C   -0.110843
    44  C   -0.102688
    45  C   -0.106569
    46  C   -0.012153
    47  C   -0.111578
    48  C   -0.067234
    49  C    0.320405
    50  O   -0.278594
    51  O   -0.254148
    52  C   -0.055685
    53  C   -0.079100
    54  O   -0.454641
    55  H    0.057779
    56  H    0.055399
    57  H    0.058810
    58  H    0.040923
    59  H    0.049132
    60  H    0.063230
    61  H    0.046232
    62  H    0.048782
    63  H    0.036398
    64  H    0.061184
    65  H    0.047924
    66  H    0.056942
    67  H    0.042330
    68  H    0.051017
    69  H    0.065007
    70  H    0.058080
    71  H    0.039827
    72  H    0.061186
    73  H    0.047331
    74  H    0.079017
    75  H    0.063042
    76  H    0.073861
    77  H    0.076336
    78  H    0.070982
    79  H    0.056620
    80  H    0.070546
    81  H    0.074711
    82  H    0.058888
    83  H    0.063096
    84  H    0.093940
    85  H    0.055536
    86  H    0.056915
    87  H    0.084696
    88  H    0.052946
    89  H    0.057118
    90  H    0.053110
    91  H    0.051877
    92  H    0.088736
    93  H    0.080862
    94  H    0.065761
    95  H    0.057386
    96  H    0.056959
    97  H    0.057569
    98  H    0.082920
    99  H    0.071189
   100  H    0.067877
   101  H    0.089243
   102  H    0.066309
   103  H    0.055071
   104  H    0.067204
   105  H    0.079008
   106  H    0.075827
   107  H    0.073140
   108  H    0.075541
   109  H    0.073553
   110  H    0.055834
 Sum of Mulliken charges =  -0.00000

 Dipole moment (field-independent basis, Debye):
    X=             -3.3727    Y=             -3.0911    Z=             -1.6260  Tot=              4.8553
 Quadrupole moment (field-independent basis, Debye-Ang):
   XX=           -285.2307   YY=           -294.4578   ZZ=           -303.3198
   XY=              8.5220   XZ=             16.2490   YZ=             -8.4798

 Summary of Natural Population Analysis:

                                       Natural Population
                Natural  -----------------------------------------------
    Atom  No    Charge         Core      Valence    Rydberg      Total
 -----------------------------------------------------------------------
      C    1   -0.05951      1.99992     4.05959    0.00000     6.05951
      C    2    0.01772      1.99990     3.98238    0.00000     5.98228
      C    3   -0.03395      1.99994     4.03400    0.00000     6.03395
      C    4   -0.08597      1.99993     4.08604    0.00000     6.08597
      C    5    0.11294      1.99985     3.88721    0.00000     5.88706
      C    6   -0.02297      1.99990     4.02307    0.00000     6.02297
      N    7   -0.27140      1.99998     5.27142    0.00000     7.27140
      C    8    0.01535      1.99996     3.98470    0.00000     5.98465
      C    9    0.17327      1.99996     3.82678    0.00000     5.82673
      C   10    0.07360      1.99994     3.92646    0.00000     5.92640
      C   11   -0.08586      1.99993     4.08593    0.00000     6.08586
      C   12   -0.07776      1.99996     4.07780    0.00000     6.07776
      C   13    0.06255      1.99998     3.93748    0.00000     5.93745
      N   14   -0.28424      1.99999     5.28425    0.00000     7.28424
      C   15    0.04313      1.99994     3.95693    0.00000     5.95687
      C   16   -0.05879      1.99996     4.05884    0.00000     6.05879
      C   17   -0.06440      1.99995     4.06445    0.00000     6.06440
      C   18   -0.06642      1.99994     4.06648    0.00000     6.06642
      C   19    0.04056      1.99995     3.95948    0.00000     5.95944
      C   20   -0.06646      1.99992     4.06654    0.00000     6.06646
      C   21   -0.08037      1.99994     4.08043    0.00000     6.08037
      C   22    0.40082      1.99991     3.59927    0.00000     5.59918
      O   23   -0.30964      1.99999     6.30965    0.00000     8.30964
      O   24   -0.26723      1.99999     6.26724    0.00000     8.26723
      C   25    0.03520      1.99984     3.96496    0.00000     5.96480
      C   26   -0.01721      1.99992     4.01729    0.00000     6.01721
      C   27   -0.08661      1.99995     4.08666    0.00000     6.08661
      C   28    0.01111      1.99990     3.98899    0.00000     5.98889
      C   29   -0.05129      1.99993     4.05137    0.00000     6.05129
      C   30   -0.03277      1.99994     4.03283    0.00000     6.03277
      C   31   -0.09158      1.99993     4.09164    0.00000     6.09158
      C   32    0.11174      1.99985     3.88840    0.00000     5.88826
      C   33   -0.03084      1.99990     4.03095    0.00000     6.03084
      N   34   -0.27621      1.99998     5.27623    0.00000     7.27621
      C   35    0.02267      1.99996     3.97737    0.00000     5.97733
      C   36    0.17157      1.99996     3.82847    0.00000     5.82843
      C   37    0.07338      1.99991     3.92671    0.00000     5.92662
      C   38   -0.08619      1.99994     4.08625    0.00000     6.08619
      C   39   -0.07362      1.99995     4.07367    0.00000     6.07362
      C   40    0.04985      1.99998     3.95018    0.00000     5.95015
      N   41    0.02696      1.99999     4.97305    0.00000     6.97304
      C   42    0.04351      1.99991     3.95658    0.00000     5.95649
      C   43   -0.08126      1.99997     4.08129    0.00000     6.08126
      C   44   -0.07028      1.99996     4.07032    0.00000     6.07028
      C   45   -0.08097      1.99994     4.08103    0.00000     6.08097
      C   46    0.03843      1.99992     3.96165    0.00000     5.96157
      C   47   -0.07528      1.99992     4.07536    0.00000     6.07528
      C   48   -0.08610      1.99995     4.08615    0.00000     6.08610
      C   49    0.40371      1.99991     3.59638    0.00000     5.59629
      O   50   -0.31296      1.99999     6.31297    0.00000     8.31296
      O   51   -0.26550      1.99999     6.26550    0.00000     8.26550
      C   52    0.03485      1.99984     3.96532    0.00000     5.96515
      C   53   -0.01617      1.99992     4.01625    0.00000     6.01617
      O   54   -0.50580      2.00000     6.50580    0.00000     8.50580
      H   55    0.03263      0.00000     0.96737    0.00000     0.96737
      H   56    0.02818      0.00000     0.97182    0.00000     0.97182
      H   57    0.03468      0.00000     0.96532    0.00000     0.96532
      H   58    0.01055      0.00000     0.98945    0.00000     0.98945
      H   59    0.02712      0.00000     0.97288    0.00000     0.97288
      H   60    0.03940      0.00000     0.96060    0.00000     0.96060
      H   61    0.02608      0.00000     0.97392    0.00000     0.97392
      H   62    0.02838      0.00000     0.97162    0.00000     0.97162
      H   63    0.00899      0.00000     0.99101    0.00000     0.99101
      H   64    0.03519      0.00000     0.96481    0.00000     0.96481
      H   65    0.02677      0.00000     0.97323    0.00000     0.97323
      H   66    0.03487      0.00000     0.96513    0.00000     0.96513
      H   67    0.02094      0.00000     0.97906    0.00000     0.97906
      H   68    0.02951      0.00000     0.97049    0.00000     0.97049
      H   69    0.04061      0.00000     0.95939    0.00000     0.95939
      H   70    0.03609      0.00000     0.96391    0.00000     0.96391
      H   71    0.01211      0.00000     0.98789    0.00000     0.98789
      H   72    0.03487      0.00000     0.96513    0.00000     0.96513
      H   73    0.02450      0.00000     0.97550    0.00000     0.97550
      H   74    0.05253      0.00000     0.94747    0.00000     0.94747
      H   75    0.03998      0.00000     0.96002    0.00000     0.96002
      H   76    0.04248      0.00000     0.95752    0.00000     0.95752
      H   77    0.04536      0.00000     0.95464    0.00000     0.95464
      H   78    0.03954      0.00000     0.96046    0.00000     0.96046
      H   79    0.03109      0.00000     0.96891    0.00000     0.96891
      H   80    0.04635      0.00000     0.95365    0.00000     0.95365
      H   81    0.05047      0.00000     0.94953    0.00000     0.94953
      H   82    0.04020      0.00000     0.95980    0.00000     0.95980
      H   83    0.04421      0.00000     0.95579    0.00000     0.95579
      H   84    0.06453      0.00000     0.93547    0.00000     0.93547
      H   85    0.02837      0.00000     0.97163    0.00000     0.97163
      H   86    0.03324      0.00000     0.96676    0.00000     0.96676
      H   87    0.04883      0.00000     0.95117    0.00000     0.95117
      H   88    0.03061      0.00000     0.96939    0.00000     0.96939
      H   89    0.03394      0.00000     0.96606    0.00000     0.96606
      H   90    0.03151      0.00000     0.96849    0.00000     0.96849
      H   91    0.03063      0.00000     0.96937    0.00000     0.96937
      H   92    0.05705      0.00000     0.94295    0.00000     0.94295
      H   93    0.05028      0.00000     0.94972    0.00000     0.94972
      H   94    0.04606      0.00000     0.95394    0.00000     0.95394
      H   95    0.03674      0.00000     0.96326    0.00000     0.96326
      H   96    0.03578      0.00000     0.96422    0.00000     0.96422
      H   97    0.03665      0.00000     0.96335    0.00000     0.96335
      H   98    0.05977      0.00000     0.94023    0.00000     0.94023
      H   99    0.04821      0.00000     0.95179    0.00000     0.95179
      H  100    0.03598      0.00000     0.96402    0.00000     0.96402
      H  101    0.05838      0.00000     0.94162    0.00000     0.94162
      H  102    0.04117      0.00000     0.95883    0.00000     0.95883
      H  103    0.03293      0.00000     0.96707    0.00000     0.96707
      H  104    0.04444      0.00000     0.95556    0.00000     0.95556
      H  105    0.04775      0.00000     0.95225    0.00000     0.95225
      H  106    0.04420      0.00000     0.95580    0.00000     0.95580
      H  107    0.04147      0.00000     0.95853    0.00000     0.95853
      H  108    0.05111      0.00000     0.94889    0.00000     0.94889
      H  109    0.04906      0.00000     0.95094    0.00000     0.95094
      H  110    0.03037      0.00000     0.96963    0.00000     0.96963
 =======================================================================
   * Total *   -0.00000    107.99668   286.00332    0.00000   394.00000

 Normal termination of Gaussian 16 at Thu May 30 08:47:21 2024.
