 Gaussian 16, Revision B.01,
 Gaussian 16:  ES64L-G16RevB.01 20-Dec-2017

 ----------------------------------------------
 # nmr=giao hf/sto-3g pop=nbo geom=connectivity
 ----------------------------------------------

 ------------------
 pleiokomenine_C_1a
 ------------------
 Symbolic Z-matrix:
 Charge =  0 Multiplicity = 1

                         Standard orientation:
 ---------------------------------------------------------------------
 Center     Atomic      Atomic             Coordinates (Angstroms)
 Number     Number       Type             X           Y           Z
 ---------------------------------------------------------------------
      1          6           0       -1.681489    1.599829   -1.588880
      2          6           0       -1.217570    2.908159   -1.786910
      3          6           0       -1.888046    3.982174   -1.163895
      4          6           0       -3.015589    3.769295   -0.357945
      5          6           0       -3.466017    2.475265   -0.166240
      6          6           0       -2.776986    1.402721   -0.765098
      7          7           0       -4.587242    2.034056    0.594009
      8          6           0       -3.369932    0.117264   -0.245935
      9          6           0       -4.810903    0.667571    0.049472
     10          6           0       -3.482003   -1.130754   -1.120750
     11          6           0       -5.610158    0.798373   -1.326241
     12          6           0       -5.703179   -0.541918   -2.058681
     13          6           0       -4.943278   -1.612100   -1.265816
     14          7           0       -2.784650   -2.166770   -0.355609
     15          6           0       -2.547309   -3.359197   -1.137857
     16          6           0       -3.924095   -3.976309   -1.439572
     17          6           0       -4.934926   -2.965925   -2.015876
     18          6           0       -2.417683   -0.324330    0.899172
     19          6           0       -1.674864   -1.524530    0.307292
     20          6           0       -5.630304   -1.708014    0.142568
     21          6           0       -5.663383   -0.323335    0.870739
     22          6           0       -5.353822   -0.439034    2.354610
     23          8           0       -4.974744   -1.455261    2.923357
     24          8           0       -5.653011    0.722555    3.002074
     25          6           0       -5.369467    0.704720    4.400304
     26          6           0       -5.685985    2.975015    0.741620
     27          6           0        0.043064    3.148513   -2.591668
     28          6           0        1.301602    2.880465   -1.794479
     29          6           0        1.733868    1.562764   -1.599562
     30          6           0        2.023901    3.938223   -1.203096
     31          6           0        3.155201    3.695439   -0.409620
     32          6           0        3.542315    2.387018   -0.179157
     33          6           0        2.831401    1.337251   -0.786664
     34          7           0        4.591429    1.904508    0.657022
     35          6           0        3.493994    0.031611   -0.433441
     36          6           0        4.146693    0.512008    0.920280
     37          6           0        2.659632   -1.228647   -0.165359
     38          6           0        3.036799    0.536998    2.058203
     39          6           0        2.427629   -0.847480    2.273890
     40          6           0        2.990113   -1.837496    1.231313
     41          7           0        2.911856   -2.159793   -1.343330
     42          6           0        2.846104   -3.623867   -0.974535
     43          6           0        1.839765   -3.861505    0.131634
     44          6           0        2.326145   -3.221667    1.431826
     45          6           0        4.392772   -0.303794   -1.644171
     46          6           0        4.271360   -1.794346   -1.868182
     47          6           0        4.532340   -1.894927    1.497987
     48          6           0        5.194997   -0.483871    1.446539
     49          6           0        6.531063   -0.496852    0.728743
     50          8           0        6.897172   -1.372120   -0.045506
     51          8           0        7.295546    0.562625    1.109550
     52          6           0        8.556570    0.645954    0.445106
     53          6           0        5.008172    2.782271    1.740952
     54          8           0        1.961339   -1.912524   -2.315257
     55          1           0       -1.163967    0.751748   -2.027060
     56          1           0       -1.521113    4.998065   -1.293594
     57          1           0       -3.506121    4.612724    0.113440
     58          1           0       -3.011623   -0.968572   -2.100369
     59          1           0       -5.159267    1.536497   -2.001116
     60          1           0       -6.625317    1.172485   -1.137888
     61          1           0       -6.755225   -0.826518   -2.184843
     62          1           0       -5.288412   -0.435181   -3.068977
     63          1           0       -2.005440   -3.139232   -2.065305
     64          1           0       -1.953848   -4.085386   -0.570880
     65          1           0       -4.337699   -4.397770   -0.514033
     66          1           0       -3.806494   -4.814122   -2.136436
     67          1           0       -4.668166   -2.791335   -3.066938
     68          1           0       -5.937471   -3.409921   -2.019889
     69          1           0       -2.957564   -0.646849    1.788163
     70          1           0       -1.704275    0.440967    1.227690
     71          1           0       -0.891056   -1.214508   -0.392347
     72          1           0       -1.234280   -2.145182    1.093002
     73          1           0       -6.664103   -2.057435    0.016091
     74          1           0       -5.140821   -2.472489    0.754687
     75          1           0       -6.713502    0.006761    0.852077
     76          1           0       -4.311437    0.486834    4.576974
     77          1           0       -5.588851    1.697520    4.802871
     78          1           0       -6.007227   -0.024356    4.909611
     79          1           0       -6.004447    3.391685   -0.220565
     80          1           0       -5.396682    3.799731    1.401693
     81          1           0       -6.553280    2.489166    1.199250
     82          1           0        0.052508    4.177649   -2.973562
     83          1           0        0.033157    2.513354   -3.487492
     84          1           0        1.225127    0.725245   -2.070919
     85          1           0        1.698301    4.965454   -1.351521
     86          1           0        3.688670    4.529460    0.030703
     87          1           0        1.583548   -1.010482   -0.208295
     88          1           0        3.469517    0.886023    3.005074
     89          1           0        2.229586    1.246191    1.836920
     90          1           0        2.644412   -1.193819    3.292592
     91          1           0        1.334537   -0.779069    2.198698
     92          1           0        2.577879   -4.162438   -1.890489
     93          1           0        3.843082   -3.950939   -0.663867
     94          1           0        1.692852   -4.935887    0.286956
     95          1           0        0.865405   -3.442112   -0.145586
     96          1           0        3.034101   -3.905659    1.917038
     97          1           0        1.469032   -3.155554    2.113773
     98          1           0        4.032156    0.184115   -2.560872
     99          1           0        5.428322    0.025591   -1.540457
    100          1           0        4.318159   -2.083057   -2.923209
    101          1           0        5.020295   -2.353940   -1.309834
    102          1           0        5.010950   -2.605097    0.820507
    103          1           0        4.707245   -2.308782    2.501453
    104          1           0        5.449883   -0.227075    2.486233
    105          1           0        9.181372   -0.214388    0.704046
    106          1           0        9.059324    1.555114    0.785925
    107          1           0        8.417039    0.713189   -0.638459
    108          1           0        5.698748    2.264857    2.413634
    109          1           0        5.541594    3.652358    1.343177
    110          1           0        4.159614    3.134152    2.338412
 ---------------------------------------------------------------------

 SCF Done:  E(RHF) =  -2300.21450210     A.U. after   16 cycles

      1  C    Isotropic =   126.3027   Anisotropy =   149.2010

      2  C    Isotropic =   119.8881   Anisotropy =   157.5066

      3  C    Isotropic =   119.8203   Anisotropy =   151.1015

      4  C    Isotropic =   133.5245   Anisotropy =   143.1005

      5  C    Isotropic =   108.4938   Anisotropy =   128.4683

      6  C    Isotropic =   117.5202   Anisotropy =   142.7368

      7  N    Isotropic =   272.6458   Anisotropy =    82.7461

      8  C    Isotropic =   198.3848   Anisotropy =    12.9312

      9  C    Isotropic =   180.1591   Anisotropy =    43.6254

     10  C    Isotropic =   189.3565   Anisotropy =    34.2207

     11  C    Isotropic =   212.7787   Anisotropy =    20.8333

     12  C    Isotropic =   214.4105   Anisotropy =    19.5458

     13  C    Isotropic =   210.8430   Anisotropy =     7.6242

     14  N    Isotropic =   299.5906   Anisotropy =    59.3490

     15  C    Isotropic =   202.0858   Anisotropy =    38.5175

     16  C    Isotropic =   219.3077   Anisotropy =    11.3571

     17  C    Isotropic =   213.9316   Anisotropy =    22.6002

     18  C    Isotropic =   209.2666   Anisotropy =    32.3375

     19  C    Isotropic =   200.0826   Anisotropy =    41.0157

     20  C    Isotropic =   212.2057   Anisotropy =    20.3709

     21  C    Isotropic =   208.1666   Anisotropy =    10.6189

     22  C    Isotropic =    96.8947   Anisotropy =    98.2361

     23  O    Isotropic =  -135.9941   Anisotropy =   888.7559

     24  O    Isotropic =   284.6115   Anisotropy =   138.8043

     25  C    Isotropic =   197.4827   Anisotropy =    56.8917

     26  C    Isotropic =   209.8623   Anisotropy =    42.3300

     27  C    Isotropic =   206.4939   Anisotropy =    14.9189

     28  C    Isotropic =   119.7092   Anisotropy =   158.3966

     29  C    Isotropic =   123.3734   Anisotropy =   153.2278

     30  C    Isotropic =   119.4008   Anisotropy =   151.2536

     31  C    Isotropic =   133.9426   Anisotropy =   142.5096

     32  C    Isotropic =   109.0869   Anisotropy =   126.7699

     33  C    Isotropic =   118.7221   Anisotropy =   138.0166

     34  N    Isotropic =   273.7811   Anisotropy =    81.3964

     35  C    Isotropic =   196.7205   Anisotropy =    16.9824

     36  C    Isotropic =   181.6803   Anisotropy =    43.2352

     37  C    Isotropic =   179.2022   Anisotropy =    48.1415

     38  C    Isotropic =   213.9709   Anisotropy =    19.4646

     39  C    Isotropic =   212.4163   Anisotropy =    20.6098

     40  C    Isotropic =   212.0275   Anisotropy =     9.3930

     41  N    Isotropic =   229.6963   Anisotropy =    27.4352

     42  C    Isotropic =   191.4656   Anisotropy =    54.0027

     43  C    Isotropic =   220.9139   Anisotropy =     5.6844

     44  C    Isotropic =   214.3125   Anisotropy =    25.3907

     45  C    Isotropic =   211.0162   Anisotropy =    38.0174

     46  C    Isotropic =   187.7113   Anisotropy =    62.0769

     47  C    Isotropic =   210.6761   Anisotropy =    25.4900

     48  C    Isotropic =   209.0182   Anisotropy =    11.6107

     49  C    Isotropic =    96.5737   Anisotropy =    98.6286

     50  O    Isotropic =  -131.6106   Anisotropy =   884.4863

     51  O    Isotropic =   283.8262   Anisotropy =   139.0277

     52  C    Isotropic =   197.2088   Anisotropy =    58.1634

     53  C    Isotropic =   209.9719   Anisotropy =    41.7345

     54  O    Isotropic =    14.2565   Anisotropy =   489.0723

     55  H    Isotropic =    25.7013   Anisotropy =    12.5252

     56  H    Isotropic =    25.8020   Anisotropy =     6.8365

     57  H    Isotropic =    26.5974   Anisotropy =     7.8054

     58  H    Isotropic =    31.9193   Anisotropy =     7.2298

     59  H    Isotropic =    32.9319   Anisotropy =     8.5827

     60  H    Isotropic =    32.1107   Anisotropy =    13.9907

     61  H    Isotropic =    32.2550   Anisotropy =    15.9781

     62  H    Isotropic =    32.5997   Anisotropy =    12.6813

     63  H    Isotropic =    32.1098   Anisotropy =    10.8104

     64  H    Isotropic =    31.6544   Anisotropy =    13.7798

     65  H    Isotropic =    31.8436   Anisotropy =    12.4498

     66  H    Isotropic =    32.3467   Anisotropy =    16.9815

     67  H    Isotropic =    32.4751   Anisotropy =    12.2923

     68  H    Isotropic =    32.2459   Anisotropy =    15.4695

     69  H    Isotropic =    32.5436   Anisotropy =    11.9409

     70  H    Isotropic =    33.4582   Anisotropy =    10.4702

     71  H    Isotropic =    31.9416   Anisotropy =    18.0220

     72  H    Isotropic =    32.0827   Anisotropy =    15.5457

     73  H    Isotropic =    32.0094   Anisotropy =    15.6377

     74  H    Isotropic =    30.3284   Anisotropy =     9.5410

     75  H    Isotropic =    31.2172   Anisotropy =    13.1616

     76  H    Isotropic =    30.6688   Anisotropy =     7.5359

     77  H    Isotropic =    30.5623   Anisotropy =    11.8084

     78  H    Isotropic =    30.5371   Anisotropy =    12.0738

     79  H    Isotropic =    31.8789   Anisotropy =    12.1003

     80  H    Isotropic =    30.7102   Anisotropy =    14.4026

     81  H    Isotropic =    30.8672   Anisotropy =    11.1551

     82  H    Isotropic =    29.9171   Anisotropy =    12.4513

     83  H    Isotropic =    29.8830   Anisotropy =     7.9058

     84  H    Isotropic =    24.9459   Anisotropy =    13.3159

     85  H    Isotropic =    25.7428   Anisotropy =     6.6890

     86  H    Isotropic =    26.6742   Anisotropy =     7.8793

     87  H    Isotropic =    30.7983   Anisotropy =    13.4365

     88  H    Isotropic =    32.3736   Anisotropy =    13.1481

     89  H    Isotropic =    33.3805   Anisotropy =     9.0473

     90  H    Isotropic =    32.3331   Anisotropy =    14.0981

     91  H    Isotropic =    32.7586   Anisotropy =    14.9369

     92  H    Isotropic =    30.5164   Anisotropy =    13.5553

     93  H    Isotropic =    31.9035   Anisotropy =     9.7572

     94  H    Isotropic =    32.2111   Anisotropy =    16.7246

     95  H    Isotropic =    31.7084   Anisotropy =    17.2375

     96  H    Isotropic =    32.4596   Anisotropy =    13.7226

     97  H    Isotropic =    32.2905   Anisotropy =    12.2626

     98  H    Isotropic =    31.7602   Anisotropy =    11.0586

     99  H    Isotropic =    32.7613   Anisotropy =    11.9056

    100  H    Isotropic =    30.6407   Anisotropy =    14.3649

    101  H    Isotropic =    31.4665   Anisotropy =     9.9701

    102  H    Isotropic =    31.8007   Anisotropy =     9.9123

    103  H    Isotropic =    32.1466   Anisotropy =    14.5634

    104  H    Isotropic =    31.2043   Anisotropy =    12.6267

    105  H    Isotropic =    30.5760   Anisotropy =    11.7526

    106  H    Isotropic =    30.5163   Anisotropy =    12.3313

    107  H    Isotropic =    30.6331   Anisotropy =     7.8041

    108  H    Isotropic =    31.0077   Anisotropy =    11.1415

    109  H    Isotropic =    30.7979   Anisotropy =    14.8992

    110  H    Isotropic =    32.0228   Anisotropy =    10.9469

 The electronic state is 1-A.
 Alpha  occ. eigenvalues --  -20.31373 -20.29793 -20.25294 -20.23810 -19.91617
 Alpha  occ. eigenvalues --  -15.47847 -15.33923 -15.32950 -15.29557 -11.17319
 Alpha  occ. eigenvalues --  -11.15662 -11.11071 -11.10231 -11.09988 -11.09066
 Alpha  occ. eigenvalues --  -11.08993 -11.08740 -11.08272 -11.08180 -11.07371
 Alpha  occ. eigenvalues --  -11.07307 -11.07232 -11.06948 -11.06108 -11.06077
 Alpha  occ. eigenvalues --  -11.06043 -11.05794 -11.05689 -11.05638 -11.05539
 Alpha  occ. eigenvalues --  -11.05250 -11.05113 -11.05015 -11.04998 -11.04946
 Alpha  occ. eigenvalues --  -11.04586 -11.04493 -11.03892 -11.03256 -11.03245
 Alpha  occ. eigenvalues --  -11.03211 -11.03153 -11.03122 -11.03106 -11.01824
 Alpha  occ. eigenvalues --  -11.01616 -11.01612 -11.01541 -11.01360 -11.01304
 Alpha  occ. eigenvalues --  -11.01237 -11.01224 -11.01057 -11.00893  -1.38586
 Alpha  occ. eigenvalues --   -1.37070  -1.28457  -1.28031  -1.26758  -1.21368
 Alpha  occ. eigenvalues --   -1.20965  -1.18664  -1.11755  -1.08881  -1.08381
 Alpha  occ. eigenvalues --   -1.07172  -1.06179  -1.04226  -1.03303  -1.00551
 Alpha  occ. eigenvalues --   -0.99935  -0.98799  -0.98042  -0.97443  -0.96788
 Alpha  occ. eigenvalues --   -0.95848  -0.94646  -0.93705  -0.93622  -0.92552
 Alpha  occ. eigenvalues --   -0.92134  -0.91206  -0.90822  -0.89326  -0.87697
 Alpha  occ. eigenvalues --   -0.86200  -0.84517  -0.82843  -0.82358  -0.80981
 Alpha  occ. eigenvalues --   -0.80824  -0.78913  -0.78364  -0.77768  -0.76507
 Alpha  occ. eigenvalues --   -0.76400  -0.74499  -0.73522  -0.72962  -0.72482
 Alpha  occ. eigenvalues --   -0.71636  -0.69804  -0.69498  -0.68866  -0.66850
 Alpha  occ. eigenvalues --   -0.65482  -0.64974  -0.64731  -0.63912  -0.62844
 Alpha  occ. eigenvalues --   -0.62593  -0.61993  -0.61580  -0.61210  -0.60946
 Alpha  occ. eigenvalues --   -0.60665  -0.59460  -0.59395  -0.59325  -0.58937
 Alpha  occ. eigenvalues --   -0.58372  -0.57965  -0.57554  -0.57291  -0.57127
 Alpha  occ. eigenvalues --   -0.56862  -0.56605  -0.56258  -0.56194  -0.55756
 Alpha  occ. eigenvalues --   -0.55402  -0.55225  -0.54850  -0.54280  -0.54078
 Alpha  occ. eigenvalues --   -0.53690  -0.53209  -0.52818  -0.52744  -0.52183
 Alpha  occ. eigenvalues --   -0.51681  -0.51407  -0.51025  -0.50984  -0.50446
 Alpha  occ. eigenvalues --   -0.49921  -0.49691  -0.49172  -0.49034  -0.48783
 Alpha  occ. eigenvalues --   -0.48438  -0.48002  -0.47684  -0.47541  -0.47097
 Alpha  occ. eigenvalues --   -0.46306  -0.46105  -0.45977  -0.45585  -0.45438
 Alpha  occ. eigenvalues --   -0.44837  -0.44803  -0.44580  -0.44340  -0.43970
 Alpha  occ. eigenvalues --   -0.43478  -0.43186  -0.43093  -0.42706  -0.42261
 Alpha  occ. eigenvalues --   -0.41846  -0.41674  -0.41221  -0.40970  -0.40718
 Alpha  occ. eigenvalues --   -0.40397  -0.39746  -0.39290  -0.38963  -0.37605
 Alpha  occ. eigenvalues --   -0.37170  -0.36679  -0.35540  -0.35298  -0.34663
 Alpha  occ. eigenvalues --   -0.33962  -0.33417  -0.32513  -0.32368  -0.31243
 Alpha  occ. eigenvalues --   -0.26812  -0.26774  -0.26320  -0.21339  -0.20087
 Alpha  occ. eigenvalues --   -0.15399  -0.15321
 Alpha virt. eigenvalues --    0.26899   0.27394   0.27942   0.29659   0.29785
 Alpha virt. eigenvalues --    0.31383   0.46086   0.47210   0.48613   0.48936
 Alpha virt. eigenvalues --    0.50004   0.50457   0.50505   0.51374   0.52690

 Mulliken charges:
               1
     1  C   -0.077465
     2  C    0.001497
     3  C   -0.063466
     4  C   -0.090233
     5  C    0.088777
     6  C   -0.014036
     7  N   -0.283475
     8  C    0.015290
     9  C    0.129472
    10  C    0.039828
    11  C   -0.114598
    12  C   -0.107877
    13  C    0.041669
    14  N   -0.292254
    15  C   -0.013231
    16  C   -0.095472
    17  C   -0.100366
    18  C   -0.099246
    19  C   -0.016277
    20  C   -0.104249
    21  C   -0.063987
    22  C    0.318390
    23  O   -0.274936
    24  O   -0.255979
    25  C   -0.055270
    26  C   -0.078622
    27  C   -0.109607
    28  C    0.002092
    29  C   -0.073454
    30  C   -0.060979
    31  C   -0.090151
    32  C    0.086422
    33  C   -0.011968
    34  N   -0.285897
    35  C    0.017185
    36  C    0.128044
    37  C    0.039637
    38  C   -0.116701
    39  C   -0.103700
    40  C    0.027481
    41  N   -0.080639
    42  C   -0.008823
    43  C   -0.104039
    44  C   -0.104500
    45  C   -0.106547
    46  C   -0.015869
    47  C   -0.108843
    48  C   -0.068069
    49  C    0.320005
    50  O   -0.279156
    51  O   -0.254479
    52  C   -0.055737
    53  C   -0.080414
    54  O   -0.456786
    55  H    0.063430
    56  H    0.054613
    57  H    0.057791
    58  H    0.045972
    59  H    0.053917
    60  H    0.048823
    61  H    0.047843
    62  H    0.049830
    63  H    0.046564
    64  H    0.058676
    65  H    0.054295
    66  H    0.049700
    67  H    0.047719
    68  H    0.050383
    69  H    0.064452
    70  H    0.055406
    71  H    0.047167
    72  H    0.056377
    73  H    0.047595
    74  H    0.079390
    75  H    0.062646
    76  H    0.073211
    77  H    0.075889
    78  H    0.071196
    79  H    0.054479
    80  H    0.070651
    81  H    0.075625
    82  H    0.056546
    83  H    0.061694
    84  H    0.082455
    85  H    0.056331
    86  H    0.058120
    87  H    0.088746
    88  H    0.052469
    89  H    0.059630
    90  H    0.052371
    91  H    0.055118
    92  H    0.092297
    93  H    0.059643
    94  H    0.064489
    95  H    0.074331
    96  H    0.053274
    97  H    0.058641
    98  H    0.079973
    99  H    0.070485
   100  H    0.089521
   101  H    0.072554
   102  H    0.062515
   103  H    0.055588
   104  H    0.067729
   105  H    0.073309
   106  H    0.079090
   107  H    0.075688
   108  H    0.075843
   109  H    0.073075
   110  H    0.056444
 Sum of Mulliken charges =  -0.00000

 Dipole moment (field-independent basis, Debye):
    X=              1.9768    Y=              0.6407    Z=              3.3683  Tot=              3.9578
 Quadrupole moment (field-independent basis, Debye-Ang):
   XX=           -272.3509   YY=           -296.1845   ZZ=           -303.2507
   XY=             -5.9724   XZ=             13.6255   YZ=              0.2180

 Summary of Natural Population Analysis:

                                       Natural Population
                Natural  -----------------------------------------------
    Atom  No    Charge         Core      Valence    Rydberg      Total
 -----------------------------------------------------------------------
      C    1   -0.06059      1.99992     4.06066    0.00000     6.06059
      C    2    0.01647      1.99990     3.98362    0.00000     5.98353
      C    3   -0.03583      1.99994     4.03588    0.00000     6.03583
      C    4   -0.08721      1.99993     4.08728    0.00000     6.08721
      C    5    0.11223      1.99985     3.88792    0.00000     5.88777
      C    6   -0.02325      1.99990     4.02335    0.00000     6.02325
      N    7   -0.27226      1.99998     5.27228    0.00000     7.27226
      C    8    0.01536      1.99996     3.98468    0.00000     5.98464
      C    9    0.17327      1.99996     3.82677    0.00000     5.82673
      C   10    0.07152      1.99994     3.92855    0.00000     5.92848
      C   11   -0.08426      1.99994     4.08433    0.00000     6.08426
      C   12   -0.07800      1.99996     4.07804    0.00000     6.07800
      C   13    0.06335      1.99998     3.93667    0.00000     5.93665
      N   14   -0.28167      1.99999     5.28168    0.00000     7.28167
      C   15    0.04117      1.99994     3.95889    0.00000     5.95883
      C   16   -0.05837      1.99996     4.05841    0.00000     6.05837
      C   17   -0.06435      1.99995     4.06440    0.00000     6.06435
      C   18   -0.06567      1.99994     4.06573    0.00000     6.06567
      C   19    0.03734      1.99995     3.96271    0.00000     5.96266
      C   20   -0.06658      1.99992     4.06665    0.00000     6.06658
      C   21   -0.08018      1.99994     4.08024    0.00000     6.08018
      C   22    0.40101      1.99991     3.59908    0.00000     5.59899
      O   23   -0.30898      1.99999     6.30899    0.00000     8.30898
      O   24   -0.26776      1.99999     6.26777    0.00000     8.26776
      C   25    0.03507      1.99984     3.96509    0.00000     5.96493
      C   26   -0.01636      1.99992     4.01644    0.00000     6.01636
      C   27   -0.08663      1.99995     4.08667    0.00000     6.08663
      C   28    0.01634      1.99990     3.98376    0.00000     5.98366
      C   29   -0.05471      1.99993     4.05479    0.00000     6.05471
      C   30   -0.03212      1.99994     4.03218    0.00000     6.03212
      C   31   -0.08749      1.99993     4.08756    0.00000     6.08749
      C   32    0.10985      1.99985     3.89030    0.00000     5.89015
      C   33   -0.02479      1.99990     4.02489    0.00000     6.02479
      N   34   -0.27430      1.99998     5.27432    0.00000     7.27430
      C   35    0.01689      1.99996     3.98315    0.00000     5.98311
      C   36    0.17162      1.99996     3.82842    0.00000     5.82838
      C   37    0.07115      1.99991     3.92894    0.00000     5.92885
      C   38   -0.08867      1.99994     4.08873    0.00000     6.08867
      C   39   -0.07235      1.99996     4.07240    0.00000     6.07235
      C   40    0.04959      1.99998     3.95043    0.00000     5.95041
      N   41    0.03281      1.99999     4.96720    0.00000     6.96719
      C   42    0.04411      1.99990     3.95599    0.00000     5.95589
      C   43   -0.07478      1.99997     4.07481    0.00000     6.07478
      C   44   -0.07060      1.99995     4.07065    0.00000     6.07060
      C   45   -0.08190      1.99995     4.08195    0.00000     6.08190
      C   46    0.03342      1.99992     3.96666    0.00000     5.96658
      C   47   -0.07127      1.99993     4.07134    0.00000     6.07127
      C   48   -0.08594      1.99994     4.08600    0.00000     6.08594
      C   49    0.40274      1.99991     3.59735    0.00000     5.59726
      O   50   -0.31335      1.99998     6.31337    0.00000     8.31335
      O   51   -0.26578      1.99999     6.26578    0.00000     8.26578
      C   52    0.03484      1.99984     3.96532    0.00000     5.96516
      C   53   -0.01795      1.99992     4.01803    0.00000     6.01795
      O   54   -0.50875      2.00000     6.50875    0.00000     8.50875
      H   55    0.03781      0.00000     0.96219    0.00000     0.96219
      H   56    0.02758      0.00000     0.97242    0.00000     0.97242
      H   57    0.03374      0.00000     0.96626    0.00000     0.96626
      H   58    0.01530      0.00000     0.98470    0.00000     0.98470
      H   59    0.03099      0.00000     0.96901    0.00000     0.96901
      H   60    0.02682      0.00000     0.97318    0.00000     0.97318
      H   61    0.02752      0.00000     0.97248    0.00000     0.97248
      H   62    0.02937      0.00000     0.97063    0.00000     0.97063
      H   63    0.01821      0.00000     0.98179    0.00000     0.98179
      H   64    0.03288      0.00000     0.96712    0.00000     0.96712
      H   65    0.03235      0.00000     0.96765    0.00000     0.96765
      H   66    0.02836      0.00000     0.97164    0.00000     0.97164
      H   67    0.02610      0.00000     0.97390    0.00000     0.97390
      H   68    0.02880      0.00000     0.97120    0.00000     0.97120
      H   69    0.04001      0.00000     0.95999    0.00000     0.95999
      H   70    0.03350      0.00000     0.96650    0.00000     0.96650
      H   71    0.01878      0.00000     0.98122    0.00000     0.98122
      H   72    0.03065      0.00000     0.96935    0.00000     0.96935
      H   73    0.02470      0.00000     0.97530    0.00000     0.97530
      H   74    0.05286      0.00000     0.94714    0.00000     0.94714
      H   75    0.03954      0.00000     0.96046    0.00000     0.96046
      H   76    0.04189      0.00000     0.95811    0.00000     0.95811
      H   77    0.04497      0.00000     0.95503    0.00000     0.95503
      H   78    0.03976      0.00000     0.96024    0.00000     0.96024
      H   79    0.02914      0.00000     0.97086    0.00000     0.97086
      H   80    0.04640      0.00000     0.95360    0.00000     0.95360
      H   81    0.05136      0.00000     0.94864    0.00000     0.94864
      H   82    0.03756      0.00000     0.96244    0.00000     0.96244
      H   83    0.04278      0.00000     0.95722    0.00000     0.95722
      H   84    0.05472      0.00000     0.94528    0.00000     0.94528
      H   85    0.02891      0.00000     0.97109    0.00000     0.97109
      H   86    0.03401      0.00000     0.96599    0.00000     0.96599
      H   87    0.05270      0.00000     0.94730    0.00000     0.94730
      H   88    0.03059      0.00000     0.96941    0.00000     0.96941
      H   89    0.03659      0.00000     0.96341    0.00000     0.96341
      H   90    0.03124      0.00000     0.96876    0.00000     0.96876
      H   91    0.03364      0.00000     0.96636    0.00000     0.96636
      H   92    0.06027      0.00000     0.93973    0.00000     0.93973
      H   93    0.02939      0.00000     0.97061    0.00000     0.97061
      H   94    0.04443      0.00000     0.95557    0.00000     0.95557
      H   95    0.05220      0.00000     0.94780    0.00000     0.94780
      H   96    0.03187      0.00000     0.96813    0.00000     0.96813
      H   97    0.03693      0.00000     0.96307    0.00000     0.96307
      H   98    0.05752      0.00000     0.94248    0.00000     0.94248
      H   99    0.04870      0.00000     0.95130    0.00000     0.95130
      H  100    0.05897      0.00000     0.94103    0.00000     0.94103
      H  101    0.04074      0.00000     0.95926    0.00000     0.95926
      H  102    0.03756      0.00000     0.96244    0.00000     0.96244
      H  103    0.03276      0.00000     0.96724    0.00000     0.96724
      H  104    0.04452      0.00000     0.95548    0.00000     0.95548
      H  105    0.04164      0.00000     0.95836    0.00000     0.95836
      H  106    0.04781      0.00000     0.95219    0.00000     0.95219
      H  107    0.04405      0.00000     0.95595    0.00000     0.95595
      H  108    0.05140      0.00000     0.94860    0.00000     0.94860
      H  109    0.04870      0.00000     0.95130    0.00000     0.95130
      H  110    0.03096      0.00000     0.96904    0.00000     0.96904
 =======================================================================
   * Total *   -0.00000    107.99668   286.00332    0.00000   394.00000

 Normal termination of Gaussian 16 at Thu May 30 09:04:51 2024.
