 Gaussian 16, Revision B.01,
 Gaussian 16:  ES64L-G16RevB.01 20-Dec-2017

 ----------------------------------------------
 # nmr=giao hf/sto-3g pop=nbo geom=connectivity
 ----------------------------------------------

 ------------------
 pleiokomenine_C_1a
 ------------------
 Symbolic Z-matrix:
 Charge =  0 Multiplicity = 1

                         Standard orientation:
 ---------------------------------------------------------------------
 Center     Atomic      Atomic             Coordinates (Angstroms)
 Number     Number       Type             X           Y           Z
 ---------------------------------------------------------------------
      1          6           0        1.671805   -1.565673   -1.420623
      2          6           0        1.454009   -2.859639   -1.915824
      3          6           0        2.493946   -3.808557   -1.832016
      4          6           0        3.734461   -3.483803   -1.261795
      5          6           0        3.937559   -2.203416   -0.776193
      6          6           0        2.893335   -1.267431   -0.839332
      7          7           0        5.113520   -1.656736   -0.194437
      8          6           0        3.320409   -0.009388   -0.128478
      9          6           0        4.876778   -0.193256   -0.313567
     10          6           0        2.901064    1.368664   -0.660048
     11          6           0        5.278001    0.285331   -1.776554
     12          6           0        4.958498    1.771732   -1.983467
     13          6           0        4.163994    2.289852   -0.768305
     14          7           0        1.853692    1.823782    0.259702
     15          6           0        1.531165    3.239596    0.175690
     16          6           0        2.736453    4.177204    0.116720
     17          6           0        3.725688    3.748022   -0.967017
     18          6           0        2.700688   -0.082089    1.289064
     19          6           0        2.157450    1.309591    1.585246
     20          6           0        5.142059    2.167958    0.450035
     21          6           0        5.687495    0.723301    0.619565
     22          6           0        5.780492    0.310192    2.077854
     23          8           0        5.217358    0.875522    3.007288
     24          8           0        6.643767   -0.733334    2.228560
     25          6           0        6.758723   -1.209237    3.569098
     26          6           0        6.377289   -2.252446   -0.598712
     27          6           0        0.115989   -3.231651   -2.525574
     28          6           0       -1.050652   -2.991834   -1.590922
     29          6           0       -1.732590   -1.768524   -1.630130
     30          6           0       -1.406859   -3.952622   -0.623866
     31          6           0       -2.409361   -3.693214    0.319384
     32          6           0       -3.027967   -2.453697    0.317314
     33          6           0       -2.696010   -1.510131   -0.669412
     34          7           0       -3.973975   -1.943881    1.248660
     35          6           0       -3.534683   -0.272225   -0.473907
     36          6           0       -3.823551   -0.478797    1.068629
     37          6           0       -2.922439    1.124313   -0.684739
     38          6           0       -2.560200    0.028240    1.897645
     39          6           0       -2.308325    1.525163    1.670233
     40          6           0       -3.247716    2.026478    0.553956
     41          7           0       -3.473058    1.607895   -2.016016
     42          6           0       -3.392730    3.100087   -2.202348
     43          6           0       -3.773528    3.936433   -0.996375
     44          6           0       -2.984542    3.500802    0.232501
     45          6           0       -4.701861   -0.354022   -1.489757
     46          6           0       -4.855632    1.041024   -2.082275
     47          6           0       -4.693792    1.849555    1.132272
     48          6           0       -4.982101    0.393169    1.575660
     49          6           0       -6.387509   -0.046518    1.205804
     50          8           0       -7.092509    0.507675    0.370804
     51          8           0       -6.787594   -1.094231    1.976623
     52          6           0       -8.085832   -1.595175    1.657954
     53          6           0       -3.966121   -2.545537    2.574340
     54          8           0       -2.728460    1.056426   -3.050436
     55          1           0        0.891484   -0.810832   -1.449085
     56          1           0        2.340166   -4.817566   -2.208395
     57          1           0        4.511453   -4.237255   -1.206610
     58          1           0        2.441903    1.281654   -1.654201
     59          1           0        6.349289    0.125174   -1.954411
     60          1           0        4.765899   -0.299440   -2.550752
     61          1           0        5.888398    2.340379   -2.109915
     62          1           0        4.391354    1.900137   -2.913827
     63          1           0        0.937564    3.389959   -0.735553
     64          1           0        0.872029    3.532191    1.002138
     65          1           0        2.390902    5.196060   -0.094983
     66          1           0        3.230581    4.215838    1.093603
     67          1           0        3.246277    3.862738   -1.948059
     68          1           0        4.592868    4.419114   -0.962838
     69          1           0        3.378698   -0.447445    2.059683
     70          1           0        1.844892   -0.772870    1.312350
     71          1           0        1.256613    1.249722    2.205293
     72          1           0        2.884061    1.917368    2.126536
     73          1           0        6.001524    2.833731    0.284863
     74          1           0        4.684340    2.544144    1.365128
     75          1           0        6.734917    0.746609    0.281517
     76          1           0        7.196229   -0.438523    4.211120
     77          1           0        5.782939   -1.525870    3.951051
     78          1           0        7.425165   -2.076134    3.564618
     79          1           0        6.473564   -2.314129   -1.688652
     80          1           0        6.476318   -3.259843   -0.180511
     81          1           0        7.220567   -1.666180   -0.221041
     82          1           0        0.112746   -4.286785   -2.828095
     83          1           0       -0.018659   -2.660453   -3.453356
     84          1           0       -1.489636   -1.019836   -2.380598
     85          1           0       -0.880576   -4.903855   -0.586783
     86          1           0       -2.654976   -4.447303    1.057663
     87          1           0       -1.834663    1.088030   -0.838094
     88          1           0       -2.708504   -0.146759    2.971008
     89          1           0       -1.650775   -0.527507    1.636842
     90          1           0       -1.256045    1.686669    1.407072
     91          1           0       -2.479744    2.078951    2.601987
     92          1           0       -2.347103    3.303874   -2.468273
     93          1           0       -4.017628    3.336097   -3.070994
     94          1           0       -3.556324    4.989822   -1.208509
     95          1           0       -4.850722    3.878347   -0.814350
     96          1           0       -1.914061    3.660390    0.048480
     97          1           0       -3.251497    4.136868    1.085024
     98          1           0       -4.449809   -1.027437   -2.321681
     99          1           0       -5.631781   -0.754128   -1.088572
    100          1           0       -5.522665    1.686103   -1.514631
    101          1           0       -5.170281    1.028793   -3.130900
    102          1           0       -5.448318    2.221567    0.440223
    103          1           0       -4.803419    2.494961    2.016096
    104          1           0       -4.980823    0.396353    2.676431
    105          1           0       -8.278898   -2.463868    2.293355
    106          1           0       -8.129273   -1.915317    0.612068
    107          1           0       -8.847882   -0.837463    1.864605
    108          1           0       -4.612859   -1.986722    3.257639
    109          1           0       -4.356364   -3.568138    2.531765
    110          1           0       -2.961292   -2.570824    3.011031
 ---------------------------------------------------------------------

 SCF Done:  E(RHF) =  -2300.22593697     A.U. after   15 cycles

      1  C    Isotropic =   124.4475   Anisotropy =   153.5781

      2  C    Isotropic =   119.5876   Anisotropy =   157.6906

      3  C    Isotropic =   119.4363   Anisotropy =   148.1698

      4  C    Isotropic =   133.7581   Anisotropy =   141.8323

      5  C    Isotropic =   109.4596   Anisotropy =   125.8341

      6  C    Isotropic =   118.0232   Anisotropy =   138.9029

      7  N    Isotropic =   274.2043   Anisotropy =    81.8985

      8  C    Isotropic =   196.2543   Anisotropy =    13.7990

      9  C    Isotropic =   180.9821   Anisotropy =    45.1672

     10  C    Isotropic =   190.3316   Anisotropy =    30.4535

     11  C    Isotropic =   213.7538   Anisotropy =    19.0599

     12  C    Isotropic =   212.8350   Anisotropy =    21.2935

     13  C    Isotropic =   213.6094   Anisotropy =     7.8863

     14  N    Isotropic =   303.2683   Anisotropy =    54.7193

     15  C    Isotropic =   205.2746   Anisotropy =    32.4738

     16  C    Isotropic =   224.1748   Anisotropy =     9.7102

     17  C    Isotropic =   215.2902   Anisotropy =    19.3956

     18  C    Isotropic =   210.6642   Anisotropy =    35.9398

     19  C    Isotropic =   200.0369   Anisotropy =    40.3568

     20  C    Isotropic =   212.2294   Anisotropy =    21.2649

     21  C    Isotropic =   209.0483   Anisotropy =     9.8430

     22  C    Isotropic =    96.3012   Anisotropy =    98.3047

     23  O    Isotropic =  -133.7098   Anisotropy =   886.9434

     24  O    Isotropic =   283.9139   Anisotropy =   139.9481

     25  C    Isotropic =   197.4047   Anisotropy =    57.3062

     26  C    Isotropic =   209.9108   Anisotropy =    42.0742

     27  C    Isotropic =   206.2815   Anisotropy =    17.0538

     28  C    Isotropic =   119.6233   Anisotropy =   160.9570

     29  C    Isotropic =   120.9973   Anisotropy =   154.8834

     30  C    Isotropic =   119.1323   Anisotropy =   155.7656

     31  C    Isotropic =   134.3244   Anisotropy =   142.8917

     32  C    Isotropic =   108.6817   Anisotropy =   128.0346

     33  C    Isotropic =   119.3337   Anisotropy =   137.9164

     34  N    Isotropic =   274.2814   Anisotropy =    80.3475

     35  C    Isotropic =   195.5218   Anisotropy =    13.8232

     36  C    Isotropic =   181.1562   Anisotropy =    44.0653

     37  C    Isotropic =   179.6993   Anisotropy =    45.4128

     38  C    Isotropic =   213.6743   Anisotropy =    20.4493

     39  C    Isotropic =   212.6229   Anisotropy =    20.4252

     40  C    Isotropic =   211.9628   Anisotropy =     8.9772

     41  N    Isotropic =   234.6430   Anisotropy =    24.2867

     42  C    Isotropic =   194.8892   Anisotropy =    48.3150

     43  C    Isotropic =   222.8821   Anisotropy =    10.0357

     44  C    Isotropic =   215.6881   Anisotropy =    17.8415

     45  C    Isotropic =   211.2243   Anisotropy =    37.5091

     46  C    Isotropic =   191.6339   Anisotropy =    53.6731

     47  C    Isotropic =   212.4457   Anisotropy =    22.8992

     48  C    Isotropic =   209.4041   Anisotropy =    11.4625

     49  C    Isotropic =    95.9681   Anisotropy =    99.0456

     50  O    Isotropic =  -133.5850   Anisotropy =   886.1166

     51  O    Isotropic =   283.4392   Anisotropy =   138.7780

     52  C    Isotropic =   197.1714   Anisotropy =    58.2880

     53  C    Isotropic =   209.8226   Anisotropy =    41.0024

     54  O    Isotropic =     0.6340   Anisotropy =   520.7588

     55  H    Isotropic =    25.9150   Anisotropy =    15.9882

     56  H    Isotropic =    25.6822   Anisotropy =     6.5829

     57  H    Isotropic =    26.5831   Anisotropy =     7.9172

     58  H    Isotropic =    31.3770   Anisotropy =     8.6247

     59  H    Isotropic =    32.1702   Anisotropy =    14.1581

     60  H    Isotropic =    32.8514   Anisotropy =     8.5039

     61  H    Isotropic =    32.3458   Anisotropy =    15.5321

     62  H    Isotropic =    32.4953   Anisotropy =    12.9925

     63  H    Isotropic =    31.7278   Anisotropy =    15.0112

     64  H    Isotropic =    31.9212   Anisotropy =    14.3545

     65  H    Isotropic =    32.6360   Anisotropy =    16.9560

     66  H    Isotropic =    32.5484   Anisotropy =    10.6368

     67  H    Isotropic =    32.5531   Anisotropy =    12.4393

     68  H    Isotropic =    32.4654   Anisotropy =    15.1892

     69  H    Isotropic =    33.1370   Anisotropy =    11.3142

     70  H    Isotropic =    32.9042   Anisotropy =    13.0071

     71  H    Isotropic =    32.1557   Anisotropy =    14.8998

     72  H    Isotropic =    32.0324   Anisotropy =     9.1969

     73  H    Isotropic =    32.2286   Anisotropy =    15.0967

     74  H    Isotropic =    31.4250   Anisotropy =     8.8055

     75  H    Isotropic =    31.2128   Anisotropy =    13.0887

     76  H    Isotropic =    30.6026   Anisotropy =    11.7159

     77  H    Isotropic =    30.7002   Anisotropy =     7.4476

     78  H    Isotropic =    30.5614   Anisotropy =    12.2617

     79  H    Isotropic =    31.8846   Anisotropy =    11.9904

     80  H    Isotropic =    30.7311   Anisotropy =    14.6311

     81  H    Isotropic =    30.9234   Anisotropy =    11.0315

     82  H    Isotropic =    29.8296   Anisotropy =    12.7740

     83  H    Isotropic =    29.8795   Anisotropy =     8.1851

     84  H    Isotropic =    24.3664   Anisotropy =    13.0043

     85  H    Isotropic =    25.9357   Anisotropy =     6.8647

     86  H    Isotropic =    26.7095   Anisotropy =     7.7747

     87  H    Isotropic =    30.2789   Anisotropy =    11.8143

     88  H    Isotropic =    32.2047   Anisotropy =    12.2548

     89  H    Isotropic =    32.9020   Anisotropy =    10.6171

     90  H    Isotropic =    32.1160   Anisotropy =    19.5400

     91  H    Isotropic =    32.2775   Anisotropy =    13.3690

     92  H    Isotropic =    30.5874   Anisotropy =    12.3476

     93  H    Isotropic =    30.7654   Anisotropy =    14.2406

     94  H    Isotropic =    32.2611   Anisotropy =    17.5673

     95  H    Isotropic =    32.4770   Anisotropy =    11.5426

     96  H    Isotropic =    32.2867   Anisotropy =    15.4207

     97  H    Isotropic =    32.3760   Anisotropy =    13.6484

     98  H    Isotropic =    31.4760   Anisotropy =    11.6943

     99  H    Isotropic =    32.7545   Anisotropy =    11.9615

    100  H    Isotropic =    31.3693   Anisotropy =     8.7416

    101  H    Isotropic =    30.8682   Anisotropy =    15.5351

    102  H    Isotropic =    31.5398   Anisotropy =    10.2961

    103  H    Isotropic =    32.1483   Anisotropy =    14.2113

    104  H    Isotropic =    31.1343   Anisotropy =    12.1899

    105  H    Isotropic =    30.4814   Anisotropy =    12.2370

    106  H    Isotropic =    30.5808   Anisotropy =     8.0518

    107  H    Isotropic =    30.5335   Anisotropy =    11.7809

    108  H    Isotropic =    30.9435   Anisotropy =    10.8648

    109  H    Isotropic =    30.7491   Anisotropy =    14.8676

    110  H    Isotropic =    31.9691   Anisotropy =    10.4873

 The electronic state is 1-A.
 Alpha  occ. eigenvalues --  -20.31060 -20.30435 -20.24911 -20.24375 -19.91354
 Alpha  occ. eigenvalues --  -15.47436 -15.33471 -15.33093 -15.30408 -11.16949
 Alpha  occ. eigenvalues --  -11.16312 -11.10797 -11.10394 -11.09771 -11.09055
 Alpha  occ. eigenvalues --  -11.09026 -11.08668 -11.08433 -11.07845 -11.07567
 Alpha  occ. eigenvalues --  -11.06921 -11.06879 -11.06876 -11.06774 -11.06524
 Alpha  occ. eigenvalues --  -11.06147 -11.06045 -11.05901 -11.05444 -11.05318
 Alpha  occ. eigenvalues --  -11.05280 -11.05092 -11.05061 -11.04942 -11.04692
 Alpha  occ. eigenvalues --  -11.04488 -11.04170 -11.04139 -11.04012 -11.03894
 Alpha  occ. eigenvalues --  -11.03642 -11.03560 -11.03452 -11.03451 -11.01395
 Alpha  occ. eigenvalues --  -11.01117 -11.01078 -11.01062 -11.00968 -11.00885
 Alpha  occ. eigenvalues --  -11.00851 -11.00710 -11.00701 -11.00654  -1.38235
 Alpha  occ. eigenvalues --   -1.37648  -1.28094  -1.27830  -1.27451  -1.21040
 Alpha  occ. eigenvalues --   -1.20904  -1.18614  -1.11563  -1.09326  -1.08154
 Alpha  occ. eigenvalues --   -1.06891  -1.06038  -1.04666  -1.03031  -1.00482
 Alpha  occ. eigenvalues --   -1.00148  -0.98675  -0.98242  -0.97498  -0.96575
 Alpha  occ. eigenvalues --   -0.96260  -0.94311  -0.94224  -0.93246  -0.92023
 Alpha  occ. eigenvalues --   -0.91671  -0.91427  -0.91122  -0.89226  -0.87812
 Alpha  occ. eigenvalues --   -0.86240  -0.84653  -0.82626  -0.82486  -0.81673
 Alpha  occ. eigenvalues --   -0.80409  -0.79328  -0.78532  -0.77747  -0.77387
 Alpha  occ. eigenvalues --   -0.76938  -0.74135  -0.73692  -0.72107  -0.71819
 Alpha  occ. eigenvalues --   -0.70833  -0.70099  -0.69676  -0.69175  -0.66621
 Alpha  occ. eigenvalues --   -0.65682  -0.65536  -0.64637  -0.63663  -0.63169
 Alpha  occ. eigenvalues --   -0.62579  -0.61881  -0.61562  -0.61428  -0.60994
 Alpha  occ. eigenvalues --   -0.60698  -0.60369  -0.59454  -0.59424  -0.58653
 Alpha  occ. eigenvalues --   -0.58356  -0.58058  -0.57887  -0.57503  -0.57160
 Alpha  occ. eigenvalues --   -0.57031  -0.56529  -0.56215  -0.55975  -0.55436
 Alpha  occ. eigenvalues --   -0.54954  -0.54794  -0.54402  -0.54329  -0.54047
 Alpha  occ. eigenvalues --   -0.53611  -0.53377  -0.52937  -0.52454  -0.51878
 Alpha  occ. eigenvalues --   -0.51821  -0.51500  -0.51035  -0.50624  -0.50257
 Alpha  occ. eigenvalues --   -0.49900  -0.49573  -0.49482  -0.49056  -0.48610
 Alpha  occ. eigenvalues --   -0.48191  -0.48016  -0.47658  -0.47527  -0.47140
 Alpha  occ. eigenvalues --   -0.46590  -0.46161  -0.45823  -0.45589  -0.45502
 Alpha  occ. eigenvalues --   -0.45230  -0.44869  -0.44621  -0.44460  -0.44198
 Alpha  occ. eigenvalues --   -0.43837  -0.43306  -0.43250  -0.42758  -0.42392
 Alpha  occ. eigenvalues --   -0.42214  -0.42041  -0.41727  -0.41090  -0.40823
 Alpha  occ. eigenvalues --   -0.40571  -0.40065  -0.39216  -0.38483  -0.38148
 Alpha  occ. eigenvalues --   -0.37196  -0.37040  -0.36157  -0.35128  -0.34329
 Alpha  occ. eigenvalues --   -0.33852  -0.33586  -0.33135  -0.32024  -0.31649
 Alpha  occ. eigenvalues --   -0.26711  -0.26149  -0.25744  -0.20880  -0.20003
 Alpha  occ. eigenvalues --   -0.15249  -0.15071
 Alpha virt. eigenvalues --    0.27512   0.27877   0.28172   0.29834   0.30108
 Alpha virt. eigenvalues --    0.30659   0.47030   0.47696   0.48629   0.49081
 Alpha virt. eigenvalues --    0.49972   0.50588   0.50817   0.51108   0.52540

 Mulliken charges:
               1
     1  C   -0.074088
     2  C    0.001488
     3  C   -0.062787
     4  C   -0.090575
     5  C    0.087644
     6  C   -0.013589
     7  N   -0.286767
     8  C    0.018002
     9  C    0.127985
    10  C    0.040479
    11  C   -0.114890
    12  C   -0.105589
    13  C    0.028029
    14  N   -0.292368
    15  C   -0.014902
    16  C   -0.107966
    17  C   -0.102017
    18  C   -0.104862
    19  C   -0.019695
    20  C   -0.110531
    21  C   -0.066468
    22  C    0.319787
    23  O   -0.278013
    24  O   -0.255098
    25  C   -0.055673
    26  C   -0.078901
    27  C   -0.109689
    28  C   -0.000224
    29  C   -0.072271
    30  C   -0.061167
    31  C   -0.091621
    32  C    0.087648
    33  C   -0.013997
    34  N   -0.287019
    35  C    0.020941
    36  C    0.128212
    37  C    0.040275
    38  C   -0.115832
    39  C   -0.106405
    40  C    0.028414
    41  N   -0.085721
    42  C   -0.007519
    43  C   -0.110748
    44  C   -0.102379
    45  C   -0.106428
    46  C   -0.012080
    47  C   -0.111567
    48  C   -0.067182
    49  C    0.320353
    50  O   -0.279158
    51  O   -0.254154
    52  C   -0.055637
    53  C   -0.079494
    54  O   -0.454266
    55  H    0.069532
    56  H    0.054884
    57  H    0.056709
    58  H    0.059590
    59  H    0.050294
    60  H    0.055868
    61  H    0.047813
    62  H    0.051722
    63  H    0.053861
    64  H    0.057910
    65  H    0.052954
    66  H    0.050382
    67  H    0.051294
    68  H    0.051205
    69  H    0.063077
    70  H    0.063389
    71  H    0.053842
    72  H    0.051549
    73  H    0.050874
    74  H    0.066995
    75  H    0.064725
    76  H    0.071855
    77  H    0.074488
    78  H    0.077158
    79  H    0.055382
    80  H    0.071445
    81  H    0.075338
    82  H    0.056284
    83  H    0.063645
    84  H    0.090648
    85  H    0.056280
    86  H    0.056791
    87  H    0.090006
    88  H    0.051748
    89  H    0.060026
    90  H    0.060181
    91  H    0.049692
    92  H    0.088562
    93  H    0.079950
    94  H    0.064629
    95  H    0.056788
    96  H    0.057985
    97  H    0.056258
    98  H    0.082418
    99  H    0.070624
   100  H    0.067474
   101  H    0.088416
   102  H    0.065451
   103  H    0.054347
   104  H    0.066805
   105  H    0.078626
   106  H    0.075672
   107  H    0.072728
   108  H    0.074913
   109  H    0.072758
   110  H    0.056231
 Sum of Mulliken charges =  -0.00000

 Dipole moment (field-independent basis, Debye):
    X=              0.3986    Y=              1.9129    Z=              3.8157  Tot=              4.2869
 Quadrupole moment (field-independent basis, Debye-Ang):
   XX=           -271.8381   YY=           -288.7478   ZZ=           -309.7866
   XY=             -3.5082   XZ=            -15.2791   YZ=             -3.6872

 Summary of Natural Population Analysis:

                                       Natural Population
                Natural  -----------------------------------------------
    Atom  No    Charge         Core      Valence    Rydberg      Total
 -----------------------------------------------------------------------
      C    1   -0.05556      1.99993     4.05563    0.00000     6.05556
      C    2    0.01665      1.99990     3.98345    0.00000     5.98335
      C    3   -0.03490      1.99995     4.03495    0.00000     6.03490
      C    4   -0.08734      1.99993     4.08741    0.00000     6.08734
      C    5    0.11055      1.99985     3.88960    0.00000     5.88945
      C    6   -0.02547      1.99990     4.02557    0.00000     6.02547
      N    7   -0.27514      1.99998     5.27516    0.00000     7.27514
      C    8    0.01971      1.99996     3.98033    0.00000     5.98029
      C    9    0.17148      1.99996     3.82856    0.00000     5.82852
      C   10    0.07424      1.99993     3.92582    0.00000     5.92576
      C   11   -0.08517      1.99994     4.08523    0.00000     6.08517
      C   12   -0.07371      1.99996     4.07376    0.00000     6.07371
      C   13    0.05032      1.99998     3.94971    0.00000     5.94968
      N   14   -0.28076      1.99999     5.28077    0.00000     7.28076
      C   15    0.03879      1.99994     3.96127    0.00000     5.96121
      C   16   -0.07423      1.99997     4.07426    0.00000     6.07423
      C   17   -0.06834      1.99996     4.06838    0.00000     6.06834
      C   18   -0.07474      1.99995     4.07479    0.00000     6.07474
      C   19    0.03370      1.99994     3.96635    0.00000     5.96630
      C   20   -0.07371      1.99992     4.07378    0.00000     6.07371
      C   21   -0.08441      1.99994     4.08447    0.00000     6.08441
      C   22    0.40335      1.99991     3.59674    0.00000     5.59665
      O   23   -0.31228      1.99999     6.31230    0.00000     8.31228
      O   24   -0.26673      1.99999     6.26673    0.00000     8.26673
      C   25    0.03470      1.99984     3.96546    0.00000     5.96530
      C   26   -0.01630      1.99992     4.01638    0.00000     6.01630
      C   27   -0.08646      1.99995     4.08650    0.00000     6.08646
      C   28    0.01242      1.99990     3.98767    0.00000     5.98758
      C   29   -0.05159      1.99993     4.05166    0.00000     6.05159
      C   30   -0.03164      1.99994     4.03170    0.00000     6.03164
      C   31   -0.08959      1.99993     4.08966    0.00000     6.08959
      C   32    0.11160      1.99985     3.88855    0.00000     5.88840
      C   33   -0.02859      1.99990     4.02869    0.00000     6.02859
      N   34   -0.27565      1.99998     5.27567    0.00000     7.27565
      C   35    0.02167      1.99996     3.97837    0.00000     5.97833
      C   36    0.17134      1.99996     3.82870    0.00000     5.82866
      C   37    0.07270      1.99991     3.92739    0.00000     5.92730
      C   38   -0.08609      1.99994     4.08616    0.00000     6.08609
      C   39   -0.07466      1.99995     4.07470    0.00000     6.07466
      C   40    0.05031      1.99998     3.94972    0.00000     5.94969
      N   41    0.02605      1.99999     4.97397    0.00000     6.97395
      C   42    0.04366      1.99991     3.95644    0.00000     5.95634
      C   43   -0.08099      1.99997     4.08102    0.00000     6.08099
      C   44   -0.07004      1.99996     4.07008    0.00000     6.07004
      C   45   -0.08061      1.99994     4.08067    0.00000     6.08061
      C   46    0.03846      1.99992     3.96162    0.00000     5.96154
      C   47   -0.07518      1.99992     4.07526    0.00000     6.07518
      C   48   -0.08608      1.99995     4.08613    0.00000     6.08608
      C   49    0.40385      1.99991     3.59624    0.00000     5.59615
      O   50   -0.31357      1.99999     6.31358    0.00000     8.31357
      O   51   -0.26553      1.99999     6.26553    0.00000     8.26553
      C   52    0.03487      1.99984     3.96529    0.00000     5.96513
      C   53   -0.01671      1.99992     4.01679    0.00000     6.01671
      O   54   -0.50515      2.00000     6.50516    0.00000     8.50515
      H   55    0.04280      0.00000     0.95720    0.00000     0.95720
      H   56    0.02775      0.00000     0.97225    0.00000     0.97225
      H   57    0.03269      0.00000     0.96731    0.00000     0.96731
      H   58    0.02803      0.00000     0.97197    0.00000     0.97197
      H   59    0.02822      0.00000     0.97178    0.00000     0.97178
      H   60    0.03282      0.00000     0.96718    0.00000     0.96718
      H   61    0.02687      0.00000     0.97313    0.00000     0.97313
      H   62    0.03054      0.00000     0.96946    0.00000     0.96946
      H   63    0.02683      0.00000     0.97317    0.00000     0.97317
      H   64    0.03245      0.00000     0.96755    0.00000     0.96755
      H   65    0.03316      0.00000     0.96684    0.00000     0.96684
      H   66    0.02980      0.00000     0.97020    0.00000     0.97020
      H   67    0.03040      0.00000     0.96960    0.00000     0.96960
      H   68    0.03034      0.00000     0.96966    0.00000     0.96966
      H   69    0.04048      0.00000     0.95952    0.00000     0.95952
      H   70    0.04207      0.00000     0.95793    0.00000     0.95793
      H   71    0.02796      0.00000     0.97204    0.00000     0.97204
      H   72    0.02252      0.00000     0.97748    0.00000     0.97748
      H   73    0.02875      0.00000     0.97125    0.00000     0.97125
      H   74    0.04181      0.00000     0.95819    0.00000     0.95819
      H   75    0.04189      0.00000     0.95811    0.00000     0.95811
      H   76    0.04035      0.00000     0.95965    0.00000     0.95965
      H   77    0.04304      0.00000     0.95696    0.00000     0.95696
      H   78    0.04610      0.00000     0.95390    0.00000     0.95390
      H   79    0.02999      0.00000     0.97001    0.00000     0.97001
      H   80    0.04713      0.00000     0.95287    0.00000     0.95287
      H   81    0.05103      0.00000     0.94897    0.00000     0.94897
      H   82    0.03734      0.00000     0.96266    0.00000     0.96266
      H   83    0.04462      0.00000     0.95538    0.00000     0.95538
      H   84    0.06175      0.00000     0.93825    0.00000     0.93825
      H   85    0.02902      0.00000     0.97098    0.00000     0.97098
      H   86    0.03295      0.00000     0.96705    0.00000     0.96705
      H   87    0.05365      0.00000     0.94635    0.00000     0.94635
      H   88    0.02945      0.00000     0.97055    0.00000     0.97055
      H   89    0.03651      0.00000     0.96349    0.00000     0.96349
      H   90    0.03792      0.00000     0.96208    0.00000     0.96208
      H   91    0.02861      0.00000     0.97139    0.00000     0.97139
      H   92    0.05691      0.00000     0.94309    0.00000     0.94309
      H   93    0.04942      0.00000     0.95058    0.00000     0.95058
      H   94    0.04497      0.00000     0.95503    0.00000     0.95503
      H   95    0.03620      0.00000     0.96380    0.00000     0.96380
      H   96    0.03677      0.00000     0.96323    0.00000     0.96323
      H   97    0.03542      0.00000     0.96458    0.00000     0.96458
      H   98    0.05933      0.00000     0.94067    0.00000     0.94067
      H   99    0.04770      0.00000     0.95230    0.00000     0.95230
      H  100    0.03564      0.00000     0.96436    0.00000     0.96436
      H  101    0.05764      0.00000     0.94236    0.00000     0.94236
      H  102    0.04036      0.00000     0.95964    0.00000     0.95964
      H  103    0.03225      0.00000     0.96775    0.00000     0.96775
      H  104    0.04406      0.00000     0.95594    0.00000     0.95594
      H  105    0.04740      0.00000     0.95260    0.00000     0.95260
      H  106    0.04407      0.00000     0.95593    0.00000     0.95593
      H  107    0.04110      0.00000     0.95890    0.00000     0.95890
      H  108    0.05053      0.00000     0.94947    0.00000     0.94947
      H  109    0.04837      0.00000     0.95163    0.00000     0.95163
      H  110    0.03074      0.00000     0.96926    0.00000     0.96926
 =======================================================================
   * Total *   -0.00000    107.99669   286.00331    0.00000   394.00000

 Normal termination of Gaussian 16 at Thu May 30 09:14:19 2024.
