 Gaussian 16, Revision B.01,
 Gaussian 16:  ES64L-G16RevB.01 20-Dec-2017

 ----------------------------------------------
 # nmr=giao hf/sto-3g pop=nbo geom=connectivity
 ----------------------------------------------

 ------------------
 pleiokomenine_C_1a
 ------------------
 Symbolic Z-matrix:
 Charge =  0 Multiplicity = 1

                         Standard orientation:
 ---------------------------------------------------------------------
 Center     Atomic      Atomic             Coordinates (Angstroms)
 Number     Number       Type             X           Y           Z
 ---------------------------------------------------------------------
      1          6           0       -1.852465   -1.639332   -1.707142
      2          6           0       -1.164891   -2.859263   -1.695656
      3          6           0       -1.529531   -3.851970   -0.762332
      4          6           0       -2.546061   -3.628928    0.176271
      5          6           0       -3.179321   -2.398053    0.197280
      6          6           0       -2.842815   -1.427761   -0.762053
      7          7           0       -4.147499   -1.921935    1.126396
      8          6           0       -3.713466   -0.215085   -0.557959
      9          6           0       -4.019106   -0.445949    0.972324
     10          6           0       -3.139644    1.196210   -0.754902
     11          6           0       -2.777345    0.067057    1.827098
     12          6           0       -2.545418    1.569722    1.625324
     13          6           0       -3.469497    2.074428    0.500285
     14          7           0       -3.715614    1.656655   -2.023049
     15          6           0       -3.594127    3.084128   -2.270889
     16          6           0       -3.945922    3.981928   -1.085084
     17          6           0       -3.203685    3.552494    0.180621
     18          6           0       -4.859930   -0.318490   -1.592399
     19          6           0       -5.042327    1.082650   -2.161830
     20          6           0       -4.926590    1.878631    1.042010
     21          6           0       -5.197921    0.410056    1.468709
     22          6           0       -6.592679   -0.053292    1.086628
     23          8           0       -7.323878    0.502706    0.276265
     24          8           0       -6.962483   -1.133569    1.831168
     25          6           0       -8.248167   -1.657998    1.502428
     26          6           0       -4.136489   -2.539743    2.443534
     27          6           0        0.007214   -3.072043   -2.627701
     28          6           0        1.345542   -2.779313   -1.980373
     29          6           0        1.632721   -1.491989   -1.501582
     30          6           0        2.306707   -3.798858   -1.830704
     31          6           0        3.540727   -3.548922   -1.215841
     32          6           0        3.816340   -2.272973   -0.752991
     33          6           0        2.850193   -1.261419   -0.880134
     34          7           0        5.005824   -1.804862   -0.134988
     35          6           0        3.344240   -0.017752   -0.181889
     36          6           0        4.891354   -0.335981   -0.294834
     37          6           0        3.075207    1.379513   -0.768214
     38          6           0        5.389697    0.077912   -1.748537
     39          6           0        5.209146    1.583389   -1.990680
     40          6           0        4.416235    2.188867   -0.813369
     41          7           0        1.974866    1.977265    0.093666
     42          6           0        1.879868    3.477929    0.010268
     43          6           0        3.199402    4.224102    0.027835
     44          6           0        4.141102    3.678726   -1.039272
     45          6           0        2.668894    0.003222    1.214741
     46          6           0        2.234833    1.441398    1.465408
     47          6           0        5.340549    1.996915    0.437855
     48          6           0        5.743992    0.517887    0.656055
     49          6           0        5.729442    0.134484    2.125200
     50          8           0        5.147703    0.762365    3.001949
     51          8           0        6.508400   -0.958699    2.349557
     52          6           0        6.511379   -1.408834    3.704229
     53          6           0        6.233814   -2.511870   -0.466554
     54          8           0        0.744607    1.499449   -0.333369
     55          1           0       -1.598624   -0.855035   -2.415166
     56          1           0       -0.996967   -4.800147   -0.746067
     57          1           0       -2.794387   -4.404315    0.890764
     58          1           0       -2.050382    1.162954   -0.886582
     59          1           0       -2.939210   -0.125580    2.895433
     60          1           0       -1.855670   -0.471048    1.572741
     61          1           0       -2.744161    2.107637    2.560977
     62          1           0       -1.490694    1.751440    1.387313
     63          1           0       -2.551284    3.283902   -2.550088
     64          1           0       -4.189463    3.373438   -3.145466
     65          1           0       -3.678324    5.017732   -1.324795
     66          1           0       -5.028323    3.974054   -0.916560
     67          1           0       -2.127964    3.713939    0.031642
     68          1           0       -3.502607    4.192139    1.019460
     69          1           0       -5.784281   -0.742454   -1.200544
     70          1           0       -4.576986   -0.973438   -2.429535
     71          1           0       -5.348837    1.036494   -3.212321
     72          1           0       -5.810844    1.639150   -1.623796
     73          1           0       -5.066580    2.516679    1.926699
     74          1           0       -5.667609    2.243024    0.330340
     75          1           0       -5.208028    0.405427    2.569624
     76          1           0       -8.415599   -2.550528    2.111612
     77          1           0       -9.028982   -0.927517    1.735509
     78          1           0       -8.288751   -1.947596    0.447594
     79          1           0       -3.133869   -2.554209    2.885870
     80          1           0       -4.508641   -3.568287    2.385556
     81          1           0       -4.796378   -2.000745    3.130159
     82          1           0       -0.097627   -2.440208   -3.519432
     83          1           0       -0.021494   -4.104097   -3.000503
     84          1           0        0.897352   -0.694086   -1.570900
     85          1           0        2.092812   -4.804150   -2.186870
     86          1           0        4.256090   -4.355667   -1.107570
     87          1           0        2.637279    1.333511   -1.775128
     88          1           0        6.448909   -0.177652   -1.880872
     89          1           0        4.858093   -0.474981   -2.532956
     90          1           0        4.691456    1.744558   -2.944540
     91          1           0        6.189793    2.066071   -2.088586
     92          1           0        1.360064    3.684483   -0.934525
     93          1           0        1.227085    3.791248    0.832970
     94          1           0        3.012116    5.286689   -0.166517
     95          1           0        3.655700    4.172419    1.020628
     96          1           0        3.691569    3.832284   -2.028994
     97          1           0        5.076491    4.251123   -1.030576
     98          1           0        1.754832   -0.608128    1.217719
     99          1           0        3.273009   -0.408854    2.021647
    100          1           0        3.000322    2.053264    1.937493
    101          1           0        1.306945    1.514469    2.042300
    102          1           0        4.897884    2.434270    1.332012
    103          1           0        6.263854    2.575824    0.288748
    104          1           0        6.802966    0.437603    0.366318
    105          1           0        7.117296   -2.317500    3.757713
    106          1           0        5.495429   -1.650963    4.032070
    107          1           0        6.960541   -0.653177    4.355885
    108          1           0        7.105113   -1.985443   -0.065040
    109          1           0        6.232387   -3.511875   -0.019594
    110          1           0        6.372146   -2.611006   -1.549101
 ---------------------------------------------------------------------

 SCF Done:  E(RHF) =  -2300.22729835     A.U. after   16 cycles

      1  C    Isotropic =   123.5343   Anisotropy =   148.9677

      2  C    Isotropic =   120.5793   Anisotropy =   159.3893

      3  C    Isotropic =   119.8903   Anisotropy =   154.6482

      4  C    Isotropic =   133.9460   Anisotropy =   143.5762

      5  C    Isotropic =   108.2532   Anisotropy =   128.9951

      6  C    Isotropic =   116.9341   Anisotropy =   143.1083

      7  N    Isotropic =   272.9505   Anisotropy =    80.2791

      8  C    Isotropic =   196.1017   Anisotropy =    12.3348

      9  C    Isotropic =   180.5972   Anisotropy =    44.8572

     10  C    Isotropic =   190.2747   Anisotropy =    29.6769

     11  C    Isotropic =   213.6888   Anisotropy =    20.0404

     12  C    Isotropic =   213.3235   Anisotropy =    20.0462

     13  C    Isotropic =   213.4707   Anisotropy =     9.6322

     14  N    Isotropic =   303.5020   Anisotropy =    56.9129

     15  C    Isotropic =   205.2261   Anisotropy =    33.8130

     16  C    Isotropic =   223.9561   Anisotropy =     8.1544

     17  C    Isotropic =   215.2120   Anisotropy =    18.9057

     18  C    Isotropic =   210.6800   Anisotropy =    36.8439

     19  C    Isotropic =   199.9160   Anisotropy =    42.9480

     20  C    Isotropic =   212.1344   Anisotropy =    22.1354

     21  C    Isotropic =   208.9074   Anisotropy =    11.8151

     22  C    Isotropic =    96.1400   Anisotropy =    98.9366

     23  O    Isotropic =  -133.8342   Anisotropy =   885.7847

     24  O    Isotropic =   284.4712   Anisotropy =   139.4260

     25  C    Isotropic =   197.4508   Anisotropy =    57.8241

     26  C    Isotropic =   209.8556   Anisotropy =    40.7039

     27  C    Isotropic =   206.3179   Anisotropy =    16.5001

     28  C    Isotropic =   119.2624   Anisotropy =   158.2438

     29  C    Isotropic =   121.6511   Anisotropy =   158.7232

     30  C    Isotropic =   119.0207   Anisotropy =   149.3624

     31  C    Isotropic =   134.3850   Anisotropy =   140.9509

     32  C    Isotropic =   109.6384   Anisotropy =   125.2421

     33  C    Isotropic =   119.8061   Anisotropy =   134.9870

     34  N    Isotropic =   275.5026   Anisotropy =    81.8208

     35  C    Isotropic =   195.5984   Anisotropy =    14.2803

     36  C    Isotropic =   181.3848   Anisotropy =    44.4082

     37  C    Isotropic =   180.1237   Anisotropy =    47.1565

     38  C    Isotropic =   213.8008   Anisotropy =    19.2969

     39  C    Isotropic =   212.5383   Anisotropy =    21.8143

     40  C    Isotropic =   212.0269   Anisotropy =     9.2910

     41  N    Isotropic =   235.0535   Anisotropy =    28.7496

     42  C    Isotropic =   194.8963   Anisotropy =    48.3370

     43  C    Isotropic =   222.9949   Anisotropy =    11.5368

     44  C    Isotropic =   215.7473   Anisotropy =    18.7588

     45  C    Isotropic =   211.1482   Anisotropy =    36.6975

     46  C    Isotropic =   191.8658   Anisotropy =    50.8249

     47  C    Isotropic =   212.5805   Anisotropy =    21.7291

     48  C    Isotropic =   209.5390   Anisotropy =     9.4911

     49  C    Isotropic =    96.0731   Anisotropy =    98.6868

     50  O    Isotropic =  -133.3704   Anisotropy =   887.1592

     51  O    Isotropic =   283.2335   Anisotropy =   139.3015

     52  C    Isotropic =   197.2150   Anisotropy =    57.5799

     53  C    Isotropic =   209.9066   Anisotropy =    42.1053

     54  O    Isotropic =     7.0100   Anisotropy =   518.2203

     55  H    Isotropic =    25.2394   Anisotropy =    12.6878

     56  H    Isotropic =    26.0343   Anisotropy =     7.0306

     57  H    Isotropic =    26.7416   Anisotropy =     7.7635

     58  H    Isotropic =    30.8602   Anisotropy =    14.1543

     59  H    Isotropic =    32.3606   Anisotropy =    12.1258

     60  H    Isotropic =    32.9607   Anisotropy =    10.7255

     61  H    Isotropic =    32.5043   Anisotropy =    13.4617

     62  H    Isotropic =    31.8787   Anisotropy =    18.6786

     63  H    Isotropic =    31.5617   Anisotropy =    14.0466

     64  H    Isotropic =    31.7923   Anisotropy =    15.7181

     65  H    Isotropic =    32.6404   Anisotropy =    17.2299

     66  H    Isotropic =    32.5132   Anisotropy =    11.9978

     67  H    Isotropic =    32.2669   Anisotropy =    14.7320

     68  H    Isotropic =    32.5137   Anisotropy =    13.7253

     69  H    Isotropic =    32.9069   Anisotropy =    11.7126

     70  H    Isotropic =    32.2592   Anisotropy =    11.8288

     71  H    Isotropic =    31.8290   Anisotropy =    16.4473

     72  H    Isotropic =    31.8983   Anisotropy =     9.8592

     73  H    Isotropic =    32.2472   Anisotropy =    14.2776

     74  H    Isotropic =    31.3550   Anisotropy =    10.3314

     75  H    Isotropic =    31.2356   Anisotropy =    11.9944

     76  H    Isotropic =    30.5657   Anisotropy =    12.1347

     77  H    Isotropic =    30.5778   Anisotropy =    11.8536

     78  H    Isotropic =    30.6288   Anisotropy =     8.0643

     79  H    Isotropic =    32.0395   Anisotropy =    10.3935

     80  H    Isotropic =    30.8355   Anisotropy =    14.7395

     81  H    Isotropic =    30.9627   Anisotropy =    10.8208

     82  H    Isotropic =    29.9469   Anisotropy =     8.0948

     83  H    Isotropic =    29.8775   Anisotropy =    12.5820

     84  H    Isotropic =    25.0609   Anisotropy =    15.5066

     85  H    Isotropic =    25.6133   Anisotropy =     6.5940

     86  H    Isotropic =    26.5982   Anisotropy =     7.9115

     87  H    Isotropic =    30.6792   Anisotropy =     6.9075

     88  H    Isotropic =    32.1222   Anisotropy =    14.1814

     89  H    Isotropic =    32.7752   Anisotropy =     8.6285

     90  H    Isotropic =    32.4070   Anisotropy =    13.1038

     91  H    Isotropic =    32.2486   Anisotropy =    15.5911

     92  H    Isotropic =    30.6947   Anisotropy =    12.6066

     93  H    Isotropic =    30.8894   Anisotropy =    12.6539

     94  H    Isotropic =    32.2928   Anisotropy =    17.6107

     95  H    Isotropic =    32.5573   Anisotropy =     9.9944

     96  H    Isotropic =    32.4397   Anisotropy =    12.7022

     97  H    Isotropic =    32.4011   Anisotropy =    15.1978

     98  H    Isotropic =    32.1802   Anisotropy =    13.4304

     99  H    Isotropic =    33.0482   Anisotropy =    11.1302

    100  H    Isotropic =    31.5400   Anisotropy =     7.9976

    101  H    Isotropic =    31.2049   Anisotropy =    13.9273

    102  H    Isotropic =    31.6417   Anisotropy =     8.8505

    103  H    Isotropic =    32.1863   Anisotropy =    15.0369

    104  H    Isotropic =    31.1552   Anisotropy =    13.1244

    105  H    Isotropic =    30.5123   Anisotropy =    12.2690

    106  H    Isotropic =    30.6761   Anisotropy =     7.4355

    107  H    Isotropic =    30.5833   Anisotropy =    11.6484

    108  H    Isotropic =    30.9362   Anisotropy =    11.0007

    109  H    Isotropic =    30.6789   Anisotropy =    14.5561

    110  H    Isotropic =    31.8682   Anisotropy =    12.0644

 The electronic state is 1-A.
 Alpha  occ. eigenvalues --  -20.31359 -20.29680 -20.25239 -20.23573 -19.92054
 Alpha  occ. eigenvalues --  -15.48102 -15.33777 -15.32276 -15.28866 -11.17280
 Alpha  occ. eigenvalues --  -11.15481 -11.11054 -11.10198 -11.09765 -11.09573
 Alpha  occ. eigenvalues --  -11.09288 -11.08976 -11.08192 -11.07955 -11.07407
 Alpha  occ. eigenvalues --  -11.07245 -11.06999 -11.06840 -11.06359 -11.05926
 Alpha  occ. eigenvalues --  -11.05706 -11.05446 -11.05336 -11.05184 -11.05131
 Alpha  occ. eigenvalues --  -11.05125 -11.05050 -11.04762 -11.04653 -11.04204
 Alpha  occ. eigenvalues --  -11.04134 -11.03669 -11.03387 -11.03031 -11.02680
 Alpha  occ. eigenvalues --  -11.02620 -11.02352 -11.02287 -11.01971 -11.01357
 Alpha  occ. eigenvalues --  -11.01290 -11.01176 -11.00890 -11.00872 -11.00744
 Alpha  occ. eigenvalues --  -11.00493 -11.00370 -11.00120 -11.00106  -1.38537
 Alpha  occ. eigenvalues --   -1.36890  -1.28549  -1.28353  -1.26664  -1.21279
 Alpha  occ. eigenvalues --   -1.19991  -1.17277  -1.12065  -1.08341  -1.07902
 Alpha  occ. eigenvalues --   -1.06768  -1.06137  -1.03671  -1.03294  -1.00770
 Alpha  occ. eigenvalues --   -0.99626  -0.98686  -0.97733  -0.97057  -0.96522
 Alpha  occ. eigenvalues --   -0.95334  -0.94857  -0.93096  -0.92941  -0.92328
 Alpha  occ. eigenvalues --   -0.91852  -0.90663  -0.90381  -0.89155  -0.87628
 Alpha  occ. eigenvalues --   -0.85999  -0.84038  -0.83067  -0.82103  -0.80807
 Alpha  occ. eigenvalues --   -0.80495  -0.79013  -0.78400  -0.77909  -0.76195
 Alpha  occ. eigenvalues --   -0.75875  -0.74516  -0.72666  -0.72463  -0.71495
 Alpha  occ. eigenvalues --   -0.70489  -0.70352  -0.68912  -0.68170  -0.67032
 Alpha  occ. eigenvalues --   -0.65944  -0.64653  -0.64096  -0.63463  -0.62976
 Alpha  occ. eigenvalues --   -0.62221  -0.62000  -0.61813  -0.61040  -0.60965
 Alpha  occ. eigenvalues --   -0.59909  -0.59867  -0.59499  -0.59084  -0.58502
 Alpha  occ. eigenvalues --   -0.58259  -0.57744  -0.57420  -0.57092  -0.56772
 Alpha  occ. eigenvalues --   -0.56645  -0.56061  -0.55882  -0.55460  -0.55386
 Alpha  occ. eigenvalues --   -0.55191  -0.54455  -0.54359  -0.53875  -0.53516
 Alpha  occ. eigenvalues --   -0.53300  -0.52826  -0.52436  -0.52307  -0.52103
 Alpha  occ. eigenvalues --   -0.51674  -0.51006  -0.50671  -0.50522  -0.49965
 Alpha  occ. eigenvalues --   -0.49640  -0.49562  -0.48852  -0.48490  -0.48329
 Alpha  occ. eigenvalues --   -0.48213  -0.47718  -0.47416  -0.47073  -0.46793
 Alpha  occ. eigenvalues --   -0.46423  -0.46294  -0.45974  -0.45442  -0.45273
 Alpha  occ. eigenvalues --   -0.44910  -0.44491  -0.44083  -0.43681  -0.43602
 Alpha  occ. eigenvalues --   -0.43302  -0.42959  -0.42518  -0.42291  -0.42183
 Alpha  occ. eigenvalues --   -0.41639  -0.41228  -0.41153  -0.40825  -0.40522
 Alpha  occ. eigenvalues --   -0.40027  -0.39557  -0.39149  -0.38804  -0.37736
 Alpha  occ. eigenvalues --   -0.36938  -0.35866  -0.35686  -0.34979  -0.34593
 Alpha  occ. eigenvalues --   -0.33913  -0.33065  -0.32372  -0.32304  -0.30849
 Alpha  occ. eigenvalues --   -0.26365  -0.25712  -0.24520  -0.20949  -0.19459
 Alpha  occ. eigenvalues --   -0.15953  -0.15780
 Alpha virt. eigenvalues --    0.27397   0.28139   0.28580   0.29713   0.30193
 Alpha virt. eigenvalues --    0.31492   0.46543   0.47207   0.49153   0.49928
 Alpha virt. eigenvalues --    0.50201   0.50418   0.50633   0.51602   0.52702

 Mulliken charges:
               1
     1  C   -0.070163
     2  C    0.000262
     3  C   -0.063330
     4  C   -0.090777
     5  C    0.087924
     6  C   -0.009459
     7  N   -0.286149
     8  C    0.018635
     9  C    0.127120
    10  C    0.037368
    11  C   -0.114678
    12  C   -0.108808
    13  C    0.029516
    14  N   -0.291803
    15  C   -0.013704
    16  C   -0.107765
    17  C   -0.102027
    18  C   -0.104588
    19  C   -0.019138
    20  C   -0.110588
    21  C   -0.066420
    22  C    0.319410
    23  O   -0.278037
    24  O   -0.255659
    25  C   -0.055650
    26  C   -0.079323
    27  C   -0.109119
    28  C    0.000507
    29  C   -0.072672
    30  C   -0.061350
    31  C   -0.092201
    32  C    0.087689
    33  C   -0.015579
    34  N   -0.287964
    35  C    0.021051
    36  C    0.128764
    37  C    0.040843
    38  C   -0.115720
    39  C   -0.104849
    40  C    0.028187
    41  N   -0.085301
    42  C   -0.007617
    43  C   -0.110774
    44  C   -0.102203
    45  C   -0.106576
    46  C   -0.012190
    47  C   -0.111642
    48  C   -0.067180
    49  C    0.320525
    50  O   -0.279183
    51  O   -0.253925
    52  C   -0.055679
    53  C   -0.078754
    54  O   -0.456263
    55  H    0.068549
    56  H    0.053806
    57  H    0.056011
    58  H    0.076790
    59  H    0.046208
    60  H    0.058893
    61  H    0.041545
    62  H    0.066941
    63  H    0.055663
    64  H    0.057984
    65  H    0.050030
    66  H    0.048215
    67  H    0.055042
    68  H    0.046951
    69  H    0.060794
    70  H    0.061769
    71  H    0.054577
    72  H    0.050019
    73  H    0.048466
    74  H    0.065965
    75  H    0.063155
    76  H    0.075923
    77  H    0.071088
    78  H    0.074412
    79  H    0.054725
    80  H    0.069797
    81  H    0.074841
    82  H    0.059318
    83  H    0.055651
    84  H    0.091053
    85  H    0.055549
    86  H    0.056474
    87  H    0.086822
    88  H    0.052839
    89  H    0.058735
    90  H    0.054362
    91  H    0.051548
    92  H    0.088942
    93  H    0.079558
    94  H    0.065851
    95  H    0.057415
    96  H    0.057050
    97  H    0.057525
    98  H    0.082938
    99  H    0.071390
   100  H    0.068360
   101  H    0.087427
   102  H    0.065758
   103  H    0.055038
   104  H    0.067160
   105  H    0.078985
   106  H    0.075685
   107  H    0.072976
   108  H    0.074919
   109  H    0.073372
   110  H    0.056147
 Sum of Mulliken charges =  -0.00000

 Dipole moment (field-independent basis, Debye):
    X=              5.6370    Y=              1.6715    Z=              2.0794  Tot=              6.2365
 Quadrupole moment (field-independent basis, Debye-Ang):
   XX=           -275.7826   YY=           -288.9581   ZZ=           -297.0417
   XY=              7.9746   XZ=            -10.2114   YZ=             -3.4490

 Summary of Natural Population Analysis:

                                       Natural Population
                Natural  -----------------------------------------------
    Atom  No    Charge         Core      Valence    Rydberg      Total
 -----------------------------------------------------------------------
      C    1   -0.05157      1.99993     4.05164    0.00000     6.05157
      C    2    0.01317      1.99990     3.98693    0.00000     5.98683
      C    3   -0.03499      1.99994     4.03505    0.00000     6.03499
      C    4   -0.08775      1.99993     4.08782    0.00000     6.08775
      C    5    0.11135      1.99985     3.88880    0.00000     5.88865
      C    6   -0.02043      1.99990     4.02053    0.00000     6.02043
      N    7   -0.27467      1.99998     5.27469    0.00000     7.27467
      C    8    0.01981      1.99996     3.98023    0.00000     5.98019
      C    9    0.17091      1.99996     3.82913    0.00000     5.82909
      C   10    0.07071      1.99993     3.92936    0.00000     5.92929
      C   11   -0.08443      1.99994     4.08449    0.00000     6.08443
      C   12   -0.07765      1.99996     4.07769    0.00000     6.07765
      C   13    0.05206      1.99998     3.94796    0.00000     5.94794
      N   14   -0.28033      1.99999     5.28034    0.00000     7.28033
      C   15    0.03968      1.99994     3.96039    0.00000     5.96032
      C   16   -0.07368      1.99997     4.07372    0.00000     6.07368
      C   17   -0.06830      1.99996     4.06834    0.00000     6.06830
      C   18   -0.07418      1.99995     4.07423    0.00000     6.07418
      C   19    0.03405      1.99994     3.96601    0.00000     5.96595
      C   20   -0.07380      1.99993     4.07387    0.00000     6.07380
      C   21   -0.08436      1.99994     4.08442    0.00000     6.08436
      C   22    0.40320      1.99991     3.59689    0.00000     5.59680
      O   23   -0.31229      1.99999     6.31231    0.00000     8.31229
      O   24   -0.26733      1.99999     6.26734    0.00000     8.26733
      C   25    0.03467      1.99984     3.96549    0.00000     5.96533
      C   26   -0.01681      1.99992     4.01688    0.00000     6.01681
      C   27   -0.08577      1.99996     4.08582    0.00000     6.08577
      C   28    0.01452      1.99990     3.98557    0.00000     5.98548
      C   29   -0.05171      1.99993     4.05178    0.00000     6.05171
      C   30   -0.03231      1.99994     4.03237    0.00000     6.03231
      C   31   -0.09032      1.99993     4.09038    0.00000     6.09032
      C   32    0.11115      1.99986     3.88899    0.00000     5.88885
      C   33   -0.03038      1.99990     4.03048    0.00000     6.03038
      N   34   -0.27655      1.99998     5.27657    0.00000     7.27655
      C   35    0.02238      1.99996     3.97766    0.00000     5.97762
      C   36    0.17152      1.99996     3.82852    0.00000     5.82848
      C   37    0.07345      1.99991     3.92664    0.00000     5.92655
      C   38   -0.08629      1.99994     4.08635    0.00000     6.08629
      C   39   -0.07273      1.99995     4.07277    0.00000     6.07273
      C   40    0.05005      1.99998     3.94997    0.00000     5.94995
      N   41    0.02698      1.99999     4.97303    0.00000     6.97302
      C   42    0.04366      1.99991     3.95643    0.00000     5.95634
      C   43   -0.08117      1.99997     4.08120    0.00000     6.08117
      C   44   -0.06987      1.99996     4.06991    0.00000     6.06987
      C   45   -0.08085      1.99994     4.08091    0.00000     6.08085
      C   46    0.03827      1.99992     3.96181    0.00000     5.96173
      C   47   -0.07545      1.99992     4.07552    0.00000     6.07545
      C   48   -0.08609      1.99995     4.08614    0.00000     6.08609
      C   49    0.40402      1.99991     3.59607    0.00000     5.59598
      O   50   -0.31361      1.99999     6.31362    0.00000     8.31361
      O   51   -0.26530      1.99999     6.26531    0.00000     8.26530
      C   52    0.03481      1.99984     3.96535    0.00000     5.96519
      C   53   -0.01583      1.99992     4.01591    0.00000     6.01583
      O   54   -0.50743      2.00000     6.50744    0.00000     8.50743
      H   55    0.04221      0.00000     0.95779    0.00000     0.95779
      H   56    0.02686      0.00000     0.97314    0.00000     0.97314
      H   57    0.03211      0.00000     0.96789    0.00000     0.96789
      H   58    0.04352      0.00000     0.95648    0.00000     0.95648
      H   59    0.02440      0.00000     0.97560    0.00000     0.97560
      H   60    0.03549      0.00000     0.96451    0.00000     0.96451
      H   61    0.02130      0.00000     0.97870    0.00000     0.97870
      H   62    0.04428      0.00000     0.95572    0.00000     0.95572
      H   63    0.02850      0.00000     0.97150    0.00000     0.97150
      H   64    0.03249      0.00000     0.96751    0.00000     0.96751
      H   65    0.03044      0.00000     0.96956    0.00000     0.96956
      H   66    0.02779      0.00000     0.97221    0.00000     0.97221
      H   67    0.03382      0.00000     0.96618    0.00000     0.96618
      H   68    0.02642      0.00000     0.97358    0.00000     0.97358
      H   69    0.03847      0.00000     0.96153    0.00000     0.96153
      H   70    0.04060      0.00000     0.95940    0.00000     0.95940
      H   71    0.02867      0.00000     0.97133    0.00000     0.97133
      H   72    0.02110      0.00000     0.97890    0.00000     0.97890
      H   73    0.02657      0.00000     0.97343    0.00000     0.97343
      H   74    0.04090      0.00000     0.95910    0.00000     0.95910
      H   75    0.04049      0.00000     0.95951    0.00000     0.95951
      H   76    0.04501      0.00000     0.95499    0.00000     0.95499
      H   77    0.03967      0.00000     0.96033    0.00000     0.96033
      H   78    0.04299      0.00000     0.95701    0.00000     0.95701
      H   79    0.02943      0.00000     0.97057    0.00000     0.97057
      H   80    0.04565      0.00000     0.95435    0.00000     0.95435
      H   81    0.05056      0.00000     0.94944    0.00000     0.94944
      H   82    0.04065      0.00000     0.95935    0.00000     0.95935
      H   83    0.03685      0.00000     0.96315    0.00000     0.96315
      H   84    0.06173      0.00000     0.93827    0.00000     0.93827
      H   85    0.02836      0.00000     0.97164    0.00000     0.97164
      H   86    0.03272      0.00000     0.96728    0.00000     0.96728
      H   87    0.05072      0.00000     0.94928    0.00000     0.94928
      H   88    0.03052      0.00000     0.96948    0.00000     0.96948
      H   89    0.03539      0.00000     0.96461    0.00000     0.96461
      H   90    0.03269      0.00000     0.96731    0.00000     0.96731
      H   91    0.03020      0.00000     0.96980    0.00000     0.96980
      H   92    0.05722      0.00000     0.94278    0.00000     0.94278
      H   93    0.04908      0.00000     0.95092    0.00000     0.95092
      H   94    0.04612      0.00000     0.95388    0.00000     0.95388
      H   95    0.03675      0.00000     0.96325    0.00000     0.96325
      H   96    0.03590      0.00000     0.96410    0.00000     0.96410
      H   97    0.03657      0.00000     0.96343    0.00000     0.96343
      H   98    0.05975      0.00000     0.94025    0.00000     0.94025
      H   99    0.04834      0.00000     0.95166    0.00000     0.95166
      H  100    0.03647      0.00000     0.96353    0.00000     0.96353
      H  101    0.05680      0.00000     0.94320    0.00000     0.94320
      H  102    0.04069      0.00000     0.95931    0.00000     0.95931
      H  103    0.03293      0.00000     0.96707    0.00000     0.96707
      H  104    0.04441      0.00000     0.95559    0.00000     0.95559
      H  105    0.04773      0.00000     0.95227    0.00000     0.95227
      H  106    0.04408      0.00000     0.95592    0.00000     0.95592
      H  107    0.04132      0.00000     0.95868    0.00000     0.95868
      H  108    0.05057      0.00000     0.94943    0.00000     0.94943
      H  109    0.04890      0.00000     0.95110    0.00000     0.95110
      H  110    0.03062      0.00000     0.96938    0.00000     0.96938
 =======================================================================
   * Total *   -0.00000    107.99670   286.00330    0.00000   394.00000

 Normal termination of Gaussian 16 at Thu May 30 09:16:16 2024.
