 Gaussian 16, Revision B.01,
 Gaussian 16:  ES64L-G16RevB.01 20-Dec-2017

 ----------------------------------------------
 # nmr=giao hf/sto-3g pop=nbo geom=connectivity
 ----------------------------------------------

 ------------------
 pleiokomenine_C_1a
 ------------------
 Symbolic Z-matrix:
 Charge =  0 Multiplicity = 1

                         Standard orientation:
 ---------------------------------------------------------------------
 Center     Atomic      Atomic             Coordinates (Angstroms)
 Number     Number       Type             X           Y           Z
 ---------------------------------------------------------------------
      1          6           0        2.205638    0.160459    1.830828
      2          6           0        1.155085   -0.652703    2.275381
      3          6           0        1.119046   -2.009969    1.891368
      4          6           0        2.112894   -2.562236    1.073407
      5          6           0        3.137336   -1.748980    0.621837
      6          6           0        3.180805   -0.400625    1.018768
      7          7           0        4.208250   -2.089561   -0.248540
      8          6           0        4.440200    0.224198    0.472085
      9          6           0        4.647832   -0.760926   -0.744663
     10          6           0        4.432176    1.670118   -0.045740
     11          6           0        3.697162   -0.310218   -1.938684
     12          6           0        4.047377    1.100683   -2.427454
     13          6           0        5.083941    1.720121   -1.470134
     14          7           0        5.111843    2.443668    0.996075
     15          6           0        5.538882    3.777130    0.598888
     16          6           0        6.224665    3.860381   -0.764342
     17          6           0        5.393626    3.175483   -1.849195
     18          6           0        5.460490    0.233463    1.636181
     19          6           0        6.133036    1.599485    1.597001
     20          6           0        6.364808    0.828733   -1.610910
     21          6           0        6.065987   -0.670361   -1.335327
     22          6           0        7.181025   -1.345652   -0.556323
     23          8           0        8.061309   -0.760324    0.062562
     24          8           0        7.120347   -2.698838   -0.702759
     25          6           0        8.112161   -3.412811    0.034457
     26          6           0        3.979490   -3.200117   -1.160133
     27          6           0        0.060367   -0.076248    3.143438
     28          6           0       -1.045637    0.580856    2.348733
     29          6           0       -2.074095   -0.197023    1.800482
     30          6           0       -1.039013    1.973747    2.131236
     31          6           0       -2.032827    2.593603    1.363983
     32          6           0       -3.031406    1.815101    0.804215
     33          6           0       -3.061803    0.432344    1.056864
     34          7           0       -4.080647    2.228917   -0.062185
     35          6           0       -4.297813   -0.143824    0.413566
     36          6           0       -4.493265    0.956273   -0.701075
     37          6           0       -4.240461   -1.521099   -0.242965
     38          6           0       -3.521041    0.622631   -1.913619
     39          6           0       -3.878728   -0.730836   -2.549427
     40          6           0       -4.903906   -1.461065   -1.649304
     41          7           0       -4.834746   -2.536844    0.741622
     42          6           0       -6.097236   -3.182431    0.225154
     43          6           0       -5.954932   -3.752665   -1.178985
     44          6           0       -5.161862   -2.882047   -2.154648
     45          6           0       -5.358463   -0.317088    1.508416
     46          6           0       -5.131740   -1.737599    1.992693
     47          6           0       -6.194708   -0.569469   -1.702422
     48          6           0       -5.897667    0.914798   -1.331180
     49          6           0       -7.028544    1.564011   -0.546895
     50          8           0       -7.951355    0.956909   -0.017560
     51          8           0       -6.931121    2.921075   -0.586993
     52          6           0       -7.947126    3.606205    0.145587
     53          6           0       -3.822303    3.420472   -0.860140
     54          8           0       -3.917756   -3.517156    1.027234
     55          1           0        2.271601    1.203545    2.125888
     56          1           0        0.304744   -2.649305    2.228672
     57          1           0        2.057672   -3.609534    0.800122
     58          1           0        3.405297    2.054345   -0.114572
     59          1           0        3.780118   -1.007847   -2.782065
     60          1           0        2.639630   -0.332870   -1.647527
     61          1           0        4.441853    1.055620   -3.450460
     62          1           0        3.136268    1.710029   -2.476466
     63          1           0        4.645702    4.414603    0.569008
     64          1           0        6.184798    4.218076    1.367891
     65          1           0        6.367938    4.913818   -1.032462
     66          1           0        7.224931    3.417273   -0.709802
     67          1           0        4.457503    3.733472   -1.981933
     68          1           0        5.924647    3.223786   -2.807310
     69          1           0        6.171618   -0.591634    1.619957
     70          1           0        4.953075    0.151941    2.608542
     71          1           0        6.383744    1.937360    2.608337
     72          1           0        7.061353    1.572751    1.024228
     73          1           0        6.745812    0.911626   -2.639052
     74          1           0        7.179746    1.205343   -0.992513
     75          1           0        6.081830   -1.173858   -2.314352
     76          1           0        9.111834   -3.174389   -0.341610
     77          1           0        8.034760   -3.188101    1.103017
     78          1           0        7.934497   -4.482368   -0.106920
     79          1           0        3.043238   -3.088887   -1.718671
     80          1           0        3.949419   -4.146512   -0.609583
     81          1           0        4.794112   -3.279857   -1.886468
     82          1           0       -0.366617   -0.862922    3.779895
     83          1           0        0.495220    0.645000    3.848232
     84          1           0       -2.092033   -1.273672    1.953318
     85          1           0       -0.243658    2.584647    2.553339
     86          1           0       -1.996067    3.665536    1.208239
     87          1           0       -3.196582   -1.848208   -0.356265
     88          1           0       -3.576382    1.402243   -2.684007
     89          1           0       -2.470983    0.601297   -1.596387
     90          1           0       -2.965716   -1.325057   -2.680330
     91          1           0       -4.290278   -0.575295   -3.554809
     92          1           0       -6.343659   -3.980340    0.936874
     93          1           0       -6.896305   -2.441414    0.287221
     94          1           0       -5.473946   -4.737396   -1.123826
     95          1           0       -6.957781   -3.935641   -1.583476
     96          1           0       -4.197843   -3.377151   -2.335705
     97          1           0       -5.668357   -2.863673   -3.127635
     98          1           0       -5.289360    0.404565    2.329346
     99          1           0       -6.372400   -0.274523    1.122836
    100          1           0       -5.997820   -2.174122    2.499202
    101          1           0       -4.258629   -1.820756    2.647171
    102          1           0       -6.991522   -0.981217   -1.083965
    103          1           0       -6.601377   -0.587644   -2.723479
    104          1           0       -5.884304    1.473035   -2.280170
    105          1           0       -8.929353    3.419704   -0.299498
    106          1           0       -7.739257    4.678323    0.090761
    107          1           0       -7.933287    3.304735    1.197752
    108          1           0       -4.602294    3.560092   -1.614810
    109          1           0       -3.827772    4.313276   -0.225690
    110          1           0       -2.860404    3.365741   -1.382708
 ---------------------------------------------------------------------

 SCF Done:  E(RHF) =  -2300.22122409     A.U. after   15 cycles

      1  C    Isotropic =   124.4267   Anisotropy =   148.3223

      2  C    Isotropic =   120.8562   Anisotropy =   157.1317

      3  C    Isotropic =   118.7655   Anisotropy =   153.8116

      4  C    Isotropic =   133.4517   Anisotropy =   143.6860

      5  C    Isotropic =   108.7547   Anisotropy =   127.0437

      6  C    Isotropic =   117.6980   Anisotropy =   139.7556

      7  N    Isotropic =   274.2068   Anisotropy =    82.0553

      8  C    Isotropic =   195.8517   Anisotropy =    12.9595

      9  C    Isotropic =   181.1504   Anisotropy =    44.4132

     10  C    Isotropic =   190.2793   Anisotropy =    29.6665

     11  C    Isotropic =   213.9222   Anisotropy =    18.7759

     12  C    Isotropic =   212.9597   Anisotropy =    21.0278

     13  C    Isotropic =   213.7413   Anisotropy =     8.2523

     14  N    Isotropic =   302.8680   Anisotropy =    55.0295

     15  C    Isotropic =   205.2867   Anisotropy =    34.6437

     16  C    Isotropic =   224.2065   Anisotropy =     8.6111

     17  C    Isotropic =   215.3062   Anisotropy =    20.0676

     18  C    Isotropic =   210.5672   Anisotropy =    37.7200

     19  C    Isotropic =   199.7028   Anisotropy =    42.4086

     20  C    Isotropic =   212.2673   Anisotropy =    21.3971

     21  C    Isotropic =   209.0976   Anisotropy =    10.8775

     22  C    Isotropic =    96.3893   Anisotropy =    99.3508

     23  O    Isotropic =  -134.5071   Anisotropy =   887.1882

     24  O    Isotropic =   283.9499   Anisotropy =   139.3040

     25  C    Isotropic =   197.3319   Anisotropy =    57.7657

     26  C    Isotropic =   209.8880   Anisotropy =    40.6314

     27  C    Isotropic =   206.3282   Anisotropy =    15.8318

     28  C    Isotropic =   119.9777   Anisotropy =   158.7724

     29  C    Isotropic =   123.5403   Anisotropy =   150.1450

     30  C    Isotropic =   118.7263   Anisotropy =   153.5705

     31  C    Isotropic =   133.6471   Anisotropy =   143.4077

     32  C    Isotropic =   108.5414   Anisotropy =   127.1680

     33  C    Isotropic =   120.8996   Anisotropy =   135.3647

     34  N    Isotropic =   273.9744   Anisotropy =    81.1588

     35  C    Isotropic =   197.4986   Anisotropy =    14.3129

     36  C    Isotropic =   180.7336   Anisotropy =    44.6039

     37  C    Isotropic =   175.7578   Anisotropy =    56.5293

     38  C    Isotropic =   213.7246   Anisotropy =    18.5914

     39  C    Isotropic =   212.0047   Anisotropy =    22.3395

     40  C    Isotropic =   211.1223   Anisotropy =     9.0647

     41  N    Isotropic =   226.9300   Anisotropy =    56.3783

     42  C    Isotropic =   196.6819   Anisotropy =    47.6096

     43  C    Isotropic =   221.7853   Anisotropy =    11.1160

     44  C    Isotropic =   217.8145   Anisotropy =    21.4110

     45  C    Isotropic =   214.0456   Anisotropy =    28.7320

     46  C    Isotropic =   186.8510   Anisotropy =    61.2212

     47  C    Isotropic =   212.0896   Anisotropy =    23.6152

     48  C    Isotropic =   208.4154   Anisotropy =    11.4627

     49  C    Isotropic =    96.1111   Anisotropy =    98.6704

     50  O    Isotropic =  -131.6192   Anisotropy =   882.0403

     51  O    Isotropic =   282.8661   Anisotropy =   138.5589

     52  C    Isotropic =   197.2013   Anisotropy =    58.0843

     53  C    Isotropic =   209.5113   Anisotropy =    41.0749

     54  O    Isotropic =    26.9274   Anisotropy =   456.4768

     55  H    Isotropic =    25.6681   Anisotropy =    15.1107

     56  H    Isotropic =    25.3276   Anisotropy =     5.9970

     57  H    Isotropic =    26.4683   Anisotropy =     8.4093

     58  H    Isotropic =    31.6550   Anisotropy =    11.3920

     59  H    Isotropic =    32.2922   Anisotropy =    12.5205

     60  H    Isotropic =    33.1916   Anisotropy =    11.5399

     61  H    Isotropic =    32.4641   Anisotropy =    14.4097

     62  H    Isotropic =    32.7894   Anisotropy =    13.5875

     63  H    Isotropic =    31.7866   Anisotropy =    14.5522

     64  H    Isotropic =    31.7592   Anisotropy =    15.5575

     65  H    Isotropic =    32.6468   Anisotropy =    17.9356

     66  H    Isotropic =    32.5222   Anisotropy =    11.3392

     67  H    Isotropic =    32.7098   Anisotropy =    12.9283

     68  H    Isotropic =    32.5213   Anisotropy =    14.4601

     69  H    Isotropic =    32.9083   Anisotropy =    11.1105

     70  H    Isotropic =    32.2902   Anisotropy =    11.3700

     71  H    Isotropic =    31.7859   Anisotropy =    16.0623

     72  H    Isotropic =    31.9162   Anisotropy =     9.5994

     73  H    Isotropic =    32.2566   Anisotropy =    14.6148

     74  H    Isotropic =    31.3670   Anisotropy =    10.1837

     75  H    Isotropic =    31.2366   Anisotropy =    11.9865

     76  H    Isotropic =    30.5589   Anisotropy =    11.8950

     77  H    Isotropic =    30.6167   Anisotropy =     7.8635

     78  H    Isotropic =    30.5211   Anisotropy =    11.8951

     79  H    Isotropic =    31.9401   Anisotropy =    11.2155

     80  H    Isotropic =    30.7001   Anisotropy =    14.0202

     81  H    Isotropic =    30.9275   Anisotropy =    10.6593

     82  H    Isotropic =    29.7774   Anisotropy =     9.9330

     83  H    Isotropic =    29.8406   Anisotropy =    10.0116

     84  H    Isotropic =    25.2766   Anisotropy =    15.5640

     85  H    Isotropic =    25.4424   Anisotropy =     5.8320

     86  H    Isotropic =    26.5204   Anisotropy =     8.1897

     87  H    Isotropic =    30.6927   Anisotropy =     9.0393

     88  H    Isotropic =    32.2608   Anisotropy =    12.6769

     89  H    Isotropic =    33.1137   Anisotropy =    11.4006

     90  H    Isotropic =    32.5061   Anisotropy =    13.6255

     91  H    Isotropic =    32.2735   Anisotropy =    14.4729

     92  H    Isotropic =    30.8380   Anisotropy =    14.4806

     93  H    Isotropic =    31.7877   Anisotropy =     7.6671

     94  H    Isotropic =    31.2323   Anisotropy =    16.1358

     95  H    Isotropic =    32.2060   Anisotropy =    16.4485

     96  H    Isotropic =    32.0103   Anisotropy =    13.3677

     97  H    Isotropic =    32.3348   Anisotropy =    14.6565

     98  H    Isotropic =    32.9052   Anisotropy =    11.6328

     99  H    Isotropic =    32.5906   Anisotropy =    10.9051

    100  H    Isotropic =    31.1763   Anisotropy =    13.5095

    101  H    Isotropic =    30.3439   Anisotropy =    11.2493

    102  H    Isotropic =    31.5408   Anisotropy =    10.0230

    103  H    Isotropic =    32.1115   Anisotropy =    14.7472

    104  H    Isotropic =    31.2322   Anisotropy =    11.8367

    105  H    Isotropic =    30.5490   Anisotropy =    11.9102

    106  H    Isotropic =    30.4959   Anisotropy =    11.7675

    107  H    Isotropic =    30.6061   Anisotropy =     7.9844

    108  H    Isotropic =    30.9207   Anisotropy =    10.6166

    109  H    Isotropic =    30.7016   Anisotropy =    13.9739

    110  H    Isotropic =    31.9689   Anisotropy =    11.2436

 The electronic state is 1-A.
 Alpha  occ. eigenvalues --  -20.31293 -20.30311 -20.25277 -20.24275 -19.91514
 Alpha  occ. eigenvalues --  -15.48122 -15.34132 -15.33062 -15.30208 -11.17296
 Alpha  occ. eigenvalues --  -11.16201 -11.11049 -11.10339 -11.10247 -11.09214
 Alpha  occ. eigenvalues --  -11.09036 -11.08618 -11.08481 -11.08304 -11.07472
 Alpha  occ. eigenvalues --  -11.07291 -11.07226 -11.07134 -11.06752 -11.06599
 Alpha  occ. eigenvalues --  -11.06094 -11.05958 -11.05743 -11.05592 -11.05588
 Alpha  occ. eigenvalues --  -11.05363 -11.05278 -11.05085 -11.04976 -11.04956
 Alpha  occ. eigenvalues --  -11.04945 -11.04661 -11.04118 -11.03991 -11.03918
 Alpha  occ. eigenvalues --  -11.03728 -11.03716 -11.03603 -11.03262 -11.02090
 Alpha  occ. eigenvalues --  -11.01964 -11.01940 -11.01874 -11.01561 -11.01443
 Alpha  occ. eigenvalues --  -11.01215 -11.01040 -11.00910 -11.00678  -1.38511
 Alpha  occ. eigenvalues --   -1.37531  -1.28343  -1.27952  -1.27330  -1.21551
 Alpha  occ. eigenvalues --   -1.20990  -1.18468  -1.11946  -1.09349  -1.08901
 Alpha  occ. eigenvalues --   -1.07370  -1.06235  -1.04576  -1.03560  -1.00787
 Alpha  occ. eigenvalues --   -1.00232  -0.98877  -0.98320  -0.97674  -0.96822
 Alpha  occ. eigenvalues --   -0.96461  -0.94283  -0.94115  -0.93921  -0.92457
 Alpha  occ. eigenvalues --   -0.92163  -0.91317  -0.91237  -0.89389  -0.87938
 Alpha  occ. eigenvalues --   -0.86628  -0.84914  -0.82784  -0.82415  -0.81627
 Alpha  occ. eigenvalues --   -0.80687  -0.79231  -0.79063  -0.78360  -0.77263
 Alpha  occ. eigenvalues --   -0.76861  -0.74790  -0.73612  -0.72985  -0.72074
 Alpha  occ. eigenvalues --   -0.71174  -0.69818  -0.69392  -0.69108  -0.66595
 Alpha  occ. eigenvalues --   -0.65598  -0.65397  -0.64614  -0.64560  -0.63857
 Alpha  occ. eigenvalues --   -0.62959  -0.61864  -0.61845  -0.61674  -0.60817
 Alpha  occ. eigenvalues --   -0.60754  -0.60280  -0.59530  -0.59339  -0.58738
 Alpha  occ. eigenvalues --   -0.58477  -0.58338  -0.58059  -0.57794  -0.57604
 Alpha  occ. eigenvalues --   -0.57044  -0.56814  -0.56380  -0.55951  -0.55663
 Alpha  occ. eigenvalues --   -0.55241  -0.55109  -0.54789  -0.54308  -0.54214
 Alpha  occ. eigenvalues --   -0.53719  -0.53550  -0.52935  -0.52816  -0.52178
 Alpha  occ. eigenvalues --   -0.51623  -0.51425  -0.51262  -0.50992  -0.50536
 Alpha  occ. eigenvalues --   -0.50457  -0.49772  -0.49604  -0.49304  -0.48998
 Alpha  occ. eigenvalues --   -0.48348  -0.48228  -0.47926  -0.47682  -0.47475
 Alpha  occ. eigenvalues --   -0.46929  -0.46683  -0.45915  -0.45739  -0.45477
 Alpha  occ. eigenvalues --   -0.45198  -0.44712  -0.44596  -0.44468  -0.44195
 Alpha  occ. eigenvalues --   -0.44096  -0.43611  -0.43148  -0.42719  -0.42583
 Alpha  occ. eigenvalues --   -0.42222  -0.41925  -0.41837  -0.41503  -0.41110
 Alpha  occ. eigenvalues --   -0.40628  -0.40083  -0.39331  -0.39050  -0.38162
 Alpha  occ. eigenvalues --   -0.37749  -0.37067  -0.36157  -0.35927  -0.34749
 Alpha  occ. eigenvalues --   -0.33903  -0.33784  -0.33010  -0.32617  -0.31643
 Alpha  occ. eigenvalues --   -0.27273  -0.26613  -0.25706  -0.21531  -0.20083
 Alpha  occ. eigenvalues --   -0.15143  -0.14888
 Alpha virt. eigenvalues --    0.26659   0.27215   0.27998   0.29573   0.29784
 Alpha virt. eigenvalues --    0.30777   0.46364   0.46867   0.48472   0.48774
 Alpha virt. eigenvalues --    0.49460   0.49936   0.50781   0.50846   0.52653

 Mulliken charges:
               1
     1  C   -0.073899
     2  C   -0.000303
     3  C   -0.061116
     4  C   -0.089614
     5  C    0.088738
     6  C   -0.013563
     7  N   -0.286553
     8  C    0.018291
     9  C    0.128236
    10  C    0.040773
    11  C   -0.114955
    12  C   -0.105470
    13  C    0.027892
    14  N   -0.291259
    15  C   -0.014625
    16  C   -0.108227
    17  C   -0.101919
    18  C   -0.105303
    19  C   -0.019483
    20  C   -0.110504
    21  C   -0.066345
    22  C    0.319730
    23  O   -0.277244
    24  O   -0.255277
    25  C   -0.055694
    26  C   -0.078951
    27  C   -0.109762
    28  C    0.002264
    29  C   -0.073864
    30  C   -0.060263
    31  C   -0.090395
    32  C    0.089634
    33  C   -0.019695
    34  N   -0.285781
    35  C    0.014572
    36  C    0.128635
    37  C    0.033925
    38  C   -0.115672
    39  C   -0.104001
    40  C    0.032513
    41  N   -0.073911
    42  C   -0.008174
    43  C   -0.101829
    44  C   -0.101888
    45  C   -0.120339
    46  C   -0.013137
    47  C   -0.111313
    48  C   -0.066022
    49  C    0.321193
    50  O   -0.278793
    51  O   -0.254568
    52  C   -0.055339
    53  C   -0.079227
    54  O   -0.455667
    55  H    0.063964
    56  H    0.061606
    57  H    0.060004
    58  H    0.056063
    59  H    0.050214
    60  H    0.054746
    61  H    0.047537
    62  H    0.049501
    63  H    0.053138
    64  H    0.061405
    65  H    0.053134
    66  H    0.050667
    67  H    0.049444
    68  H    0.050923
    69  H    0.063238
    70  H    0.063698
    71  H    0.056871
    72  H    0.051017
    73  H    0.050681
    74  H    0.067891
    75  H    0.064477
    76  H    0.071852
    77  H    0.074932
    78  H    0.077311
    79  H    0.055350
    80  H    0.072491
    81  H    0.075369
    82  H    0.060403
    83  H    0.058206
    84  H    0.076296
    85  H    0.058347
    86  H    0.059007
    87  H    0.092766
    88  H    0.052852
    89  H    0.057645
    90  H    0.056942
    91  H    0.051195
    92  H    0.087328
    93  H    0.060316
    94  H    0.076333
    95  H    0.059226
    96  H    0.064320
    97  H    0.054668
    98  H    0.072039
    99  H    0.070173
   100  H    0.074289
   101  H    0.093113
   102  H    0.065312
   103  H    0.055741
   104  H    0.066633
   105  H    0.073124
   106  H    0.078554
   107  H    0.075907
   108  H    0.076425
   109  H    0.072771
   110  H    0.056086
 Sum of Mulliken charges =  -0.00000

 Dipole moment (field-independent basis, Debye):
    X=             -1.9067    Y=              3.1155    Z=             -4.3210  Tot=              5.6580
 Quadrupole moment (field-independent basis, Debye-Ang):
   XX=           -282.9413   YY=           -303.8301   ZZ=           -294.9471
   XY=            -15.7627   XZ=              0.6507   YZ=              4.5942

 Summary of Natural Population Analysis:

                                       Natural Population
                Natural  -----------------------------------------------
    Atom  No    Charge         Core      Valence    Rydberg      Total
 -----------------------------------------------------------------------
      C    1   -0.05510      1.99993     4.05518    0.00000     6.05510
      C    2    0.01276      1.99990     3.98734    0.00000     5.98724
      C    3   -0.03214      1.99994     4.03219    0.00000     6.03214
      C    4   -0.08682      1.99993     4.08689    0.00000     6.08682
      C    5    0.11203      1.99985     3.88812    0.00000     5.88797
      C    6   -0.02493      1.99990     4.02503    0.00000     6.02493
      N    7   -0.27508      1.99998     5.27510    0.00000     7.27508
      C    8    0.02013      1.99996     3.97991    0.00000     5.97987
      C    9    0.17147      1.99996     3.82857    0.00000     5.82853
      C   10    0.07438      1.99993     3.92569    0.00000     5.92562
      C   11   -0.08521      1.99994     4.08527    0.00000     6.08521
      C   12   -0.07362      1.99996     4.07367    0.00000     6.07362
      C   13    0.05016      1.99998     3.94986    0.00000     5.94984
      N   14   -0.27964      1.99999     5.27965    0.00000     7.27964
      C   15    0.03889      1.99994     3.96117    0.00000     5.96111
      C   16   -0.07458      1.99997     4.07462    0.00000     6.07458
      C   17   -0.06809      1.99996     4.06813    0.00000     6.06809
      C   18   -0.07545      1.99995     4.07550    0.00000     6.07545
      C   19    0.03387      1.99994     3.96619    0.00000     5.96613
      C   20   -0.07375      1.99992     4.07383    0.00000     6.07375
      C   21   -0.08420      1.99994     4.08425    0.00000     6.08420
      C   22    0.40306      1.99991     3.59703    0.00000     5.59694
      O   23   -0.31144      1.99999     6.31146    0.00000     8.31144
      O   24   -0.26687      1.99999     6.26688    0.00000     8.26687
      C   25    0.03471      1.99984     3.96545    0.00000     5.96529
      C   26   -0.01628      1.99992     4.01636    0.00000     6.01628
      C   27   -0.08731      1.99996     4.08735    0.00000     6.08731
      C   28    0.01606      1.99991     3.98403    0.00000     5.98394
      C   29   -0.05381      1.99993     4.05388    0.00000     6.05381
      C   30   -0.03101      1.99994     4.03107    0.00000     6.03101
      C   31   -0.08823      1.99993     4.08829    0.00000     6.08823
      C   32    0.11384      1.99985     3.88631    0.00000     5.88616
      C   33   -0.03289      1.99990     4.03299    0.00000     6.03289
      N   34   -0.27432      1.99998     5.27435    0.00000     7.27432
      C   35    0.01307      1.99996     3.98697    0.00000     5.98693
      C   36    0.17178      1.99996     3.82827    0.00000     5.82822
      C   37    0.06488      1.99990     3.93522    0.00000     5.93512
      C   38   -0.08620      1.99994     4.08626    0.00000     6.08620
      C   39   -0.07100      1.99995     4.07105    0.00000     6.07100
      C   40    0.05508      1.99998     3.94494    0.00000     5.94492
      N   41    0.04037      1.99999     4.95964    0.00000     6.95963
      C   42    0.04552      1.99990     3.95458    0.00000     5.95448
      C   43   -0.07227      1.99996     4.07230    0.00000     6.07227
      C   44   -0.07075      1.99995     4.07080    0.00000     6.07075
      C   45   -0.09478      1.99995     4.09483    0.00000     6.09478
      C   46    0.03814      1.99991     3.96194    0.00000     5.96186
      C   47   -0.07386      1.99992     4.07394    0.00000     6.07386
      C   48   -0.08304      1.99994     4.08310    0.00000     6.08304
      C   49    0.40445      1.99991     3.59564    0.00000     5.59555
      O   50   -0.31342      1.99998     6.31343    0.00000     8.31342
      O   51   -0.26617      1.99999     6.26617    0.00000     8.26617
      C   52    0.03525      1.99984     3.96491    0.00000     5.96475
      C   53   -0.01632      1.99992     4.01640    0.00000     6.01632
      O   54   -0.50933      2.00000     6.50933    0.00000     8.50933
      H   55    0.03797      0.00000     0.96203    0.00000     0.96203
      H   56    0.03386      0.00000     0.96614    0.00000     0.96614
      H   57    0.03576      0.00000     0.96424    0.00000     0.96424
      H   58    0.02484      0.00000     0.97516    0.00000     0.97516
      H   59    0.02815      0.00000     0.97185    0.00000     0.97185
      H   60    0.03181      0.00000     0.96819    0.00000     0.96819
      H   61    0.02665      0.00000     0.97335    0.00000     0.97335
      H   62    0.02857      0.00000     0.97143    0.00000     0.97143
      H   63    0.02614      0.00000     0.97386    0.00000     0.97386
      H   64    0.03562      0.00000     0.96438    0.00000     0.96438
      H   65    0.03333      0.00000     0.96667    0.00000     0.96667
      H   66    0.03007      0.00000     0.96993    0.00000     0.96993
      H   67    0.02871      0.00000     0.97129    0.00000     0.97129
      H   68    0.03008      0.00000     0.96992    0.00000     0.96992
      H   69    0.04067      0.00000     0.95933    0.00000     0.95933
      H   70    0.04238      0.00000     0.95762    0.00000     0.95762
      H   71    0.03069      0.00000     0.96931    0.00000     0.96931
      H   72    0.02201      0.00000     0.97799    0.00000     0.97799
      H   73    0.02858      0.00000     0.97142    0.00000     0.97142
      H   74    0.04264      0.00000     0.95736    0.00000     0.95736
      H   75    0.04169      0.00000     0.95831    0.00000     0.95831
      H   76    0.04034      0.00000     0.95966    0.00000     0.95966
      H   77    0.04344      0.00000     0.95656    0.00000     0.95656
      H   78    0.04622      0.00000     0.95378    0.00000     0.95378
      H   79    0.02995      0.00000     0.97005    0.00000     0.97005
      H   80    0.04807      0.00000     0.95193    0.00000     0.95193
      H   81    0.05105      0.00000     0.94895    0.00000     0.94895
      H   82    0.04160      0.00000     0.95840    0.00000     0.95840
      H   83    0.03950      0.00000     0.96050    0.00000     0.96050
      H   84    0.04910      0.00000     0.95090    0.00000     0.95090
      H   85    0.03087      0.00000     0.96913    0.00000     0.96913
      H   86    0.03495      0.00000     0.96505    0.00000     0.96505
      H   87    0.05647      0.00000     0.94353    0.00000     0.94353
      H   88    0.03052      0.00000     0.96948    0.00000     0.96948
      H   89    0.03429      0.00000     0.96571    0.00000     0.96571
      H   90    0.03484      0.00000     0.96516    0.00000     0.96516
      H   91    0.02959      0.00000     0.97041    0.00000     0.97041
      H   92    0.05594      0.00000     0.94406    0.00000     0.94406
      H   93    0.02902      0.00000     0.97098    0.00000     0.97098
      H   94    0.05401      0.00000     0.94599    0.00000     0.94599
      H   95    0.03902      0.00000     0.96098    0.00000     0.96098
      H   96    0.04262      0.00000     0.95738    0.00000     0.95738
      H   97    0.03397      0.00000     0.96603    0.00000     0.96603
      H   98    0.05155      0.00000     0.94845    0.00000     0.94845
      H   99    0.04645      0.00000     0.95355    0.00000     0.95355
      H  100    0.04428      0.00000     0.95572    0.00000     0.95572
      H  101    0.06025      0.00000     0.93975    0.00000     0.93975
      H  102    0.03973      0.00000     0.96027    0.00000     0.96027
      H  103    0.03305      0.00000     0.96695    0.00000     0.96695
      H  104    0.04334      0.00000     0.95666    0.00000     0.95666
      H  105    0.04145      0.00000     0.95855    0.00000     0.95855
      H  106    0.04731      0.00000     0.95269    0.00000     0.95269
      H  107    0.04426      0.00000     0.95574    0.00000     0.95574
      H  108    0.05190      0.00000     0.94810    0.00000     0.94810
      H  109    0.04823      0.00000     0.95177    0.00000     0.95177
      H  110    0.03058      0.00000     0.96942    0.00000     0.96942
 =======================================================================
   * Total *   -0.00000    107.99668   286.00332    0.00000   394.00000

 Normal termination of Gaussian 16 at Thu May 30 09:10:37 2024.
