 Gaussian 16, Revision B.01,
 Gaussian 16:  ES64L-G16RevB.01 20-Dec-2017

 ----------------------------------------------
 # nmr=giao hf/sto-3g pop=nbo geom=connectivity
 ----------------------------------------------

 ------------------
 pleiokomenine_C_1a
 ------------------
 Symbolic Z-matrix:
 Charge =  0 Multiplicity = 1

                         Standard orientation:
 ---------------------------------------------------------------------
 Center     Atomic      Atomic             Coordinates (Angstroms)
 Number     Number       Type             X           Y           Z
 ---------------------------------------------------------------------
      1          6           0       -1.632521    1.965389   -1.323637
      2          6           0       -1.041162    3.233065   -1.227843
      3          6           0       -1.542899    4.163755   -0.293235
      4          6           0       -2.627660    3.850018    0.537746
      5          6           0       -3.203530    2.596454    0.440603
      6          6           0       -2.683807    1.659638   -0.475667
      7          7           0       -4.301657    2.072473    1.169478
      8          6           0       -3.386455    0.343041   -0.249907
      9          6           0       -4.723905    0.926600    0.330878
     10          6           0       -3.714740   -0.599399   -1.408481
     11          6           0       -5.609975    1.493486   -0.869644
     12          6           0       -5.932158    0.407621   -1.897926
     13          6           0       -5.227887   -0.895952   -1.503368
     14          7           0       -3.076538   -1.865095   -1.031180
     15          6           0       -3.042114   -2.806738   -2.126806
     16          6           0       -4.501743   -3.202451   -2.410789
     17          6           0       -5.442721   -1.992950   -2.574262
     18          6           0       -2.420546   -0.497499    0.629250
     19          6           0       -1.847418   -1.523201   -0.352300
     20          6           0       -5.784842   -1.306753   -0.095030
     21          6           0       -5.618161   -0.161417    0.959848
     22          6           0       -5.233219   -0.678186    2.339622
     23          8           0       -4.498428   -0.129701    3.147405
     24          8           0       -5.927763   -1.825950    2.614197
     25          6           0       -5.659717   -2.374804    3.904861
     26          6           0       -5.254561    2.998518    1.746764
     27          6           0        0.187655    3.556872   -2.052417
     28          6           0        1.472082    3.118425   -1.382310
     29          6           0        1.779758    1.754298   -1.291911
     30          6           0        2.353867    4.060428   -0.817303
     31          6           0        3.517196    3.654978   -0.148058
     32          6           0        3.782132    2.301394   -0.018224
     33          6           0        2.917189    1.364477   -0.605212
     34          7           0        4.846130    1.677677    0.688144
     35          6           0        3.456934   -0.024643   -0.375506
     36          6           0        4.310554    0.312728    0.914639
     37          6           0        2.503128   -1.189267   -0.052747
     38          6           0        3.340993    0.331165    2.178645
     39          6           0        2.689400   -1.040596    2.402085
     40          6           0        3.029149   -1.956055    1.207677
     41          7           0        2.413186   -2.004713   -1.331975
     42          6           0        1.931461   -3.416742   -1.123716
     43          6           0        2.514243   -4.141723    0.073219
     44          6           0        2.336986   -3.315937    1.341420
     45          6           0        4.173337   -0.447617   -1.683039
     46          6           0        3.772788   -1.893456   -1.947081
     47          6           0        4.585782   -2.133526    1.263608
     48          6           0        5.339171   -0.779532    1.244039
     49          6           0        6.585530   -0.834573    0.378883
     50          8           0        6.803852   -1.688693   -0.472201
     51          8           0        7.460286    0.149135    0.723733
     52          6           0        8.642608    0.189763   -0.075379
     53          6           0        5.443269    2.444739    1.771630
     54          8           0        1.494249   -1.414595   -2.190623
     55          1           0       -1.239179    1.217522   -2.006171
     56          1           0       -1.071801    5.139135   -0.194595
     57          1           0       -2.986043    4.580287    1.253443
     58          1           0       -3.317099   -0.213489   -2.357271
     59          1           0       -5.123841    2.331183   -1.385138
     60          1           0       -6.549614    1.909386   -0.482033
     61          1           0       -7.017539    0.258610   -1.956448
     62          1           0       -5.611464    0.741109   -2.892827
     63          1           0       -2.569714   -2.381368   -3.020087
     64          1           0       -2.481699   -3.706885   -1.850421
     65          1           0       -4.545292   -3.824546   -3.312105
     66          1           0       -4.870913   -3.824724   -1.585029
     67          1           0       -5.259824   -1.562958   -3.568193
     68          1           0       -6.484633   -2.334557   -2.571337
     69          1           0       -2.944384   -1.040816    1.417651
     70          1           0       -1.617407    0.073643    1.109012
     71          1           0       -1.101467   -1.082753   -1.021758
     72          1           0       -1.406005   -2.373478    0.175853
     73          1           0       -6.853147   -1.546500   -0.182299
     74          1           0       -5.302685   -2.228469    0.250255
     75          1           0       -6.613788    0.275302    1.132169
     76          1           0       -6.232787   -3.300770    4.004273
     77          1           0       -4.596540   -2.613915    4.008401
     78          1           0       -5.981573   -1.682561    4.688985
     79          1           0       -5.672481    3.677501    0.995591
     80          1           0       -4.783964    3.595853    2.534976
     81          1           0       -6.082676    2.454736    2.212488
     82          1           0        0.214846    4.634399   -2.260100
     83          1           0        0.111761    3.078208   -3.037713
     84          1           0        1.137401    1.006130   -1.747649
     85          1           0        2.131903    5.122892   -0.887339
     86          1           0        4.175713    4.402844    0.277789
     87          1           0        1.472870   -0.850443    0.125657
     88          1           0        3.893628    0.612137    3.084396
     89          1           0        2.551613    1.086150    2.075201
     90          1           0        1.604797   -0.920090    2.516206
     91          1           0        3.050208   -1.477045    3.342170
     92          1           0        0.842858   -3.338500   -1.005227
     93          1           0        2.134137   -3.952000   -2.058130
     94          1           0        2.000369   -5.102493    0.194596
     95          1           0        3.568229   -4.379657   -0.098232
     96          1           0        1.264978   -3.175134    1.532178
     97          1           0        2.735364   -3.870567    2.199604
     98          1           0        3.811734    0.142967   -2.537082
     99          1           0        5.251306   -0.294876   -1.685204
    100          1           0        3.685144   -2.125925   -3.013402
    101          1           0        4.428404   -2.620880   -1.473347
    102          1           0        4.937928   -2.806757    0.482924
    103          1           0        4.850620   -2.649016    2.198416
    104          1           0        5.724181   -0.621830    2.263227
    105          1           0        9.231517   -0.721212    0.068854
    106          1           0        9.241360    1.045161    0.249234
    107          1           0        8.389204    0.325846   -1.131534
    108          1           0        6.138983    1.826316    2.346891
    109          1           0        6.020300    3.285284    1.371586
    110          1           0        4.689973    2.834620    2.465590
 ---------------------------------------------------------------------

 SCF Done:  E(RHF) =  -2300.22011689     A.U. after   16 cycles

      1  C    Isotropic =   125.4841   Anisotropy =   148.9894

      2  C    Isotropic =   120.1734   Anisotropy =   157.8079

      3  C    Isotropic =   119.5755   Anisotropy =   153.4590

      4  C    Isotropic =   134.4880   Anisotropy =   142.4130

      5  C    Isotropic =   108.9118   Anisotropy =   129.0751

      6  C    Isotropic =   118.0834   Anisotropy =   141.6867

      7  N    Isotropic =   275.4921   Anisotropy =    86.4527

      8  C    Isotropic =   198.1242   Anisotropy =    11.9111

      9  C    Isotropic =   180.3187   Anisotropy =    41.8529

     10  C    Isotropic =   189.1790   Anisotropy =    33.6590

     11  C    Isotropic =   213.0807   Anisotropy =    20.9877

     12  C    Isotropic =   214.5450   Anisotropy =    19.2745

     13  C    Isotropic =   210.8704   Anisotropy =     8.1899

     14  N    Isotropic =   299.3851   Anisotropy =    58.5508

     15  C    Isotropic =   202.1115   Anisotropy =    39.0680

     16  C    Isotropic =   219.2417   Anisotropy =    11.1475

     17  C    Isotropic =   213.8527   Anisotropy =    22.9907

     18  C    Isotropic =   208.4020   Anisotropy =    30.3971

     19  C    Isotropic =   199.8904   Anisotropy =    41.9396

     20  C    Isotropic =   211.5193   Anisotropy =    23.2234

     21  C    Isotropic =   207.7461   Anisotropy =    15.6861

     22  C    Isotropic =    98.8115   Anisotropy =    97.2811

     23  O    Isotropic =  -143.1246   Anisotropy =   894.1966

     24  O    Isotropic =   285.2932   Anisotropy =   146.0951

     25  C    Isotropic =   197.6345   Anisotropy =    56.3607

     26  C    Isotropic =   211.0057   Anisotropy =    42.0454

     27  C    Isotropic =   206.5112   Anisotropy =    15.0373

     28  C    Isotropic =   120.1421   Anisotropy =   157.2382

     29  C    Isotropic =   121.9829   Anisotropy =   156.6183

     30  C    Isotropic =   119.4030   Anisotropy =   150.0827

     31  C    Isotropic =   134.3455   Anisotropy =   141.3422

     32  C    Isotropic =   109.2585   Anisotropy =   126.1078

     33  C    Isotropic =   119.9023   Anisotropy =   135.0096

     34  N    Isotropic =   274.6355   Anisotropy =    80.9846

     35  C    Isotropic =   195.7910   Anisotropy =    15.3734

     36  C    Isotropic =   181.4440   Anisotropy =    44.5035

     37  C    Isotropic =   180.0163   Anisotropy =    44.2294

     38  C    Isotropic =   213.9551   Anisotropy =    18.7593

     39  C    Isotropic =   212.7773   Anisotropy =    20.3925

     40  C    Isotropic =   212.2509   Anisotropy =     8.5739

     41  N    Isotropic =   235.0669   Anisotropy =    25.8240

     42  C    Isotropic =   195.0683   Anisotropy =    47.8565

     43  C    Isotropic =   223.0839   Anisotropy =     9.5701

     44  C    Isotropic =   215.8964   Anisotropy =    18.1172

     45  C    Isotropic =   211.2730   Anisotropy =    37.1635

     46  C    Isotropic =   191.7090   Anisotropy =    54.0549

     47  C    Isotropic =   212.6099   Anisotropy =    22.8192

     48  C    Isotropic =   209.5376   Anisotropy =    10.7581

     49  C    Isotropic =    96.0571   Anisotropy =    98.9370

     50  O    Isotropic =  -133.6031   Anisotropy =   886.4550

     51  O    Isotropic =   283.3091   Anisotropy =   139.0883

     52  C    Isotropic =   197.2021   Anisotropy =    58.0895

     53  C    Isotropic =   209.9175   Anisotropy =    41.6277

     54  O    Isotropic =     1.7706   Anisotropy =   521.5443

     55  H    Isotropic =    25.5663   Anisotropy =    12.0194

     56  H    Isotropic =    25.9018   Anisotropy =     6.9603

     57  H    Isotropic =    26.7163   Anisotropy =     7.4546

     58  H    Isotropic =    31.9337   Anisotropy =     6.9796

     59  H    Isotropic =    32.9163   Anisotropy =     8.5946

     60  H    Isotropic =    32.2150   Anisotropy =    14.0042

     61  H    Isotropic =    32.2421   Anisotropy =    15.9551

     62  H    Isotropic =    32.6053   Anisotropy =    12.9490

     63  H    Isotropic =    32.1578   Anisotropy =    10.6647

     64  H    Isotropic =    31.6709   Anisotropy =    13.6472

     65  H    Isotropic =    32.3607   Anisotropy =    17.3739

     66  H    Isotropic =    31.9082   Anisotropy =    12.1807

     67  H    Isotropic =    32.4825   Anisotropy =    12.6033

     68  H    Isotropic =    32.2085   Anisotropy =    15.4396

     69  H    Isotropic =    32.4796   Anisotropy =    11.1681

     70  H    Isotropic =    33.0551   Anisotropy =    11.7364

     71  H    Isotropic =    31.3445   Anisotropy =    17.1498

     72  H    Isotropic =    32.0624   Anisotropy =    16.1626

     73  H    Isotropic =    31.5255   Anisotropy =    15.0555

     74  H    Isotropic =    30.8805   Anisotropy =     8.0390

     75  H    Isotropic =    31.4380   Anisotropy =    12.9285

     76  H    Isotropic =    30.5673   Anisotropy =    12.5592

     77  H    Isotropic =    30.6092   Anisotropy =     7.8353

     78  H    Isotropic =    30.5730   Anisotropy =    11.0884

     79  H    Isotropic =    31.9618   Anisotropy =    12.4075

     80  H    Isotropic =    30.8899   Anisotropy =    14.5178

     81  H    Isotropic =    31.7040   Anisotropy =    11.8372

     82  H    Isotropic =    29.9492   Anisotropy =    12.3960

     83  H    Isotropic =    29.9271   Anisotropy =     8.0373

     84  H    Isotropic =    24.7893   Anisotropy =    14.2654

     85  H    Isotropic =    25.7028   Anisotropy =     6.5329

     86  H    Isotropic =    26.6757   Anisotropy =     7.8804

     87  H    Isotropic =    31.0746   Anisotropy =    13.3825

     88  H    Isotropic =    32.3286   Anisotropy =    13.4765

     89  H    Isotropic =    33.2388   Anisotropy =     9.1526

     90  H    Isotropic =    32.7698   Anisotropy =    13.7741

     91  H    Isotropic =    32.4440   Anisotropy =    14.7515

     92  H    Isotropic =    30.8328   Anisotropy =    15.3242

     93  H    Isotropic =    30.8856   Anisotropy =    13.0232

     94  H    Isotropic =    32.3617   Anisotropy =    17.3162

     95  H    Isotropic =    32.5923   Anisotropy =    11.6163

     96  H    Isotropic =    32.6477   Anisotropy =    13.3119

     97  H    Isotropic =    32.5100   Anisotropy =    14.5887

     98  H    Isotropic =    31.6533   Anisotropy =    10.8374

     99  H    Isotropic =    32.8649   Anisotropy =    12.1925

    100  H    Isotropic =    30.9680   Anisotropy =    14.7068

    101  H    Isotropic =    31.4940   Anisotropy =     8.9673

    102  H    Isotropic =    31.6664   Anisotropy =     9.7030

    103  H    Isotropic =    32.2648   Anisotropy =    14.7040

    104  H    Isotropic =    31.2333   Anisotropy =    12.7534

    105  H    Isotropic =    30.5753   Anisotropy =    11.7369

    106  H    Isotropic =    30.5114   Anisotropy =    12.2680

    107  H    Isotropic =    30.6316   Anisotropy =     7.8093

    108  H    Isotropic =    31.0000   Anisotropy =    11.0359

    109  H    Isotropic =    30.7628   Anisotropy =    14.7920

    110  H    Isotropic =    31.9838   Anisotropy =    11.1910

 The electronic state is 1-A.
 Alpha  occ. eigenvalues --  -20.31224 -20.29465 -20.25085 -20.23986 -19.91900
 Alpha  occ. eigenvalues --  -15.47839 -15.33659 -15.32643 -15.29333 -11.17129
 Alpha  occ. eigenvalues --  -11.15465 -11.10932 -11.10012 -11.09977 -11.09362
 Alpha  occ. eigenvalues --  -11.09074 -11.08764 -11.08454 -11.07999 -11.07570
 Alpha  occ. eigenvalues --  -11.07196 -11.07089 -11.06809 -11.06185 -11.06044
 Alpha  occ. eigenvalues --  -11.05898 -11.05745 -11.05654 -11.05531 -11.05434
 Alpha  occ. eigenvalues --  -11.05238 -11.04974 -11.04853 -11.04823 -11.04667
 Alpha  occ. eigenvalues --  -11.04556 -11.04386 -11.03508 -11.03454 -11.03283
 Alpha  occ. eigenvalues --  -11.03165 -11.03032 -11.02933 -11.02869 -11.01322
 Alpha  occ. eigenvalues --  -11.01269 -11.01098 -11.01075 -11.00861 -11.00853
 Alpha  occ. eigenvalues --  -11.00822 -11.00806 -11.00577 -11.00412  -1.38398
 Alpha  occ. eigenvalues --   -1.36922  -1.28307  -1.28159  -1.26621  -1.21109
 Alpha  occ. eigenvalues --   -1.20747  -1.18494  -1.11858  -1.08645  -1.08120
 Alpha  occ. eigenvalues --   -1.06876  -1.06218  -1.04032  -1.03273  -1.00606
 Alpha  occ. eigenvalues --   -0.99808  -0.98644  -0.97947  -0.97218  -0.96512
 Alpha  occ. eigenvalues --   -0.95830  -0.94660  -0.93388  -0.93299  -0.92194
 Alpha  occ. eigenvalues --   -0.91820  -0.91139  -0.90101  -0.89249  -0.87771
 Alpha  occ. eigenvalues --   -0.86113  -0.84415  -0.82871  -0.82354  -0.80894
 Alpha  occ. eigenvalues --   -0.80641  -0.78818  -0.78732  -0.77922  -0.76197
 Alpha  occ. eigenvalues --   -0.76080  -0.74390  -0.73264  -0.72351  -0.72182
 Alpha  occ. eigenvalues --   -0.71226  -0.70318  -0.69463  -0.68793  -0.66865
 Alpha  occ. eigenvalues --   -0.65788  -0.64195  -0.64007  -0.63794  -0.62834
 Alpha  occ. eigenvalues --   -0.62573  -0.61912  -0.61826  -0.61647  -0.60895
 Alpha  occ. eigenvalues --   -0.60275  -0.59705  -0.59294  -0.59232  -0.58871
 Alpha  occ. eigenvalues --   -0.58206  -0.57802  -0.57588  -0.57257  -0.57056
 Alpha  occ. eigenvalues --   -0.56665  -0.56074  -0.55985  -0.55712  -0.55664
 Alpha  occ. eigenvalues --   -0.55145  -0.54995  -0.54486  -0.54141  -0.53962
 Alpha  occ. eigenvalues --   -0.53609  -0.52972  -0.52785  -0.52573  -0.52086
 Alpha  occ. eigenvalues --   -0.52011  -0.51117  -0.50608  -0.50407  -0.50318
 Alpha  occ. eigenvalues --   -0.49831  -0.49729  -0.49455  -0.48890  -0.48576
 Alpha  occ. eigenvalues --   -0.48480  -0.47851  -0.47608  -0.47408  -0.46738
 Alpha  occ. eigenvalues --   -0.46324  -0.46161  -0.45888  -0.45424  -0.45200
 Alpha  occ. eigenvalues --   -0.45042  -0.44812  -0.44618  -0.44107  -0.43738
 Alpha  occ. eigenvalues --   -0.43537  -0.43363  -0.43215  -0.42340  -0.42221
 Alpha  occ. eigenvalues --   -0.41892  -0.41432  -0.40990  -0.40861  -0.40497
 Alpha  occ. eigenvalues --   -0.40264  -0.39471  -0.39298  -0.38681  -0.37522
 Alpha  occ. eigenvalues --   -0.37171  -0.36542  -0.35528  -0.35182  -0.34495
 Alpha  occ. eigenvalues --   -0.33762  -0.33107  -0.32396  -0.32159  -0.30738
 Alpha  occ. eigenvalues --   -0.26753  -0.26353  -0.25957  -0.20913  -0.19431
 Alpha  occ. eigenvalues --   -0.15778  -0.15607
 Alpha virt. eigenvalues --    0.27327   0.27906   0.28286   0.29871   0.30172
 Alpha virt. eigenvalues --    0.31838   0.46689   0.47413   0.49116   0.49270
 Alpha virt. eigenvalues --    0.50310   0.50547   0.50693   0.50868   0.52814

 Mulliken charges:
               1
     1  C   -0.076444
     2  C   -0.000087
     3  C   -0.062892
     4  C   -0.091806
     5  C    0.094366
     6  C   -0.015199
     7  N   -0.283608
     8  C    0.016554
     9  C    0.131872
    10  C    0.038909
    11  C   -0.114968
    12  C   -0.107969
    13  C    0.040998
    14  N   -0.294729
    15  C   -0.012834
    16  C   -0.095463
    17  C   -0.100334
    18  C   -0.094703
    19  C   -0.020360
    20  C   -0.099195
    21  C   -0.062735
    22  C    0.314081
    23  O   -0.265914
    24  O   -0.261519
    25  C   -0.056940
    26  C   -0.075988
    27  C   -0.109261
    28  C    0.000345
    29  C   -0.072526
    30  C   -0.060751
    31  C   -0.091636
    32  C    0.087763
    33  C   -0.014511
    34  N   -0.287056
    35  C    0.020690
    36  C    0.128344
    37  C    0.040674
    38  C   -0.115944
    39  C   -0.104907
    40  C    0.028078
    41  N   -0.085964
    42  C   -0.007905
    43  C   -0.110850
    44  C   -0.102119
    45  C   -0.106727
    46  C   -0.012189
    47  C   -0.111513
    48  C   -0.067158
    49  C    0.320369
    50  O   -0.279143
    51  O   -0.253992
    52  C   -0.055668
    53  C   -0.079409
    54  O   -0.455011
    55  H    0.064040
    56  H    0.054286
    57  H    0.056766
    58  H    0.045658
    59  H    0.053922
    60  H    0.047377
    61  H    0.047488
    62  H    0.049645
    63  H    0.045503
    64  H    0.058287
    65  H    0.049117
    66  H    0.052682
    67  H    0.047606
    68  H    0.050409
    69  H    0.059042
    70  H    0.057724
    71  H    0.060625
    72  H    0.051743
    73  H    0.052160
    74  H    0.071748
    75  H    0.061903
    76  H    0.075206
    77  H    0.071917
    78  H    0.071720
    79  H    0.054907
    80  H    0.074162
    81  H    0.068560
    82  H    0.055430
    83  H    0.060586
    84  H    0.089485
    85  H    0.055552
    86  H    0.056708
    87  H    0.086629
    88  H    0.052867
    89  H    0.060131
    90  H    0.055694
    91  H    0.051439
    92  H    0.088478
    93  H    0.080304
    94  H    0.065486
    95  H    0.057312
    96  H    0.056870
    97  H    0.057486
    98  H    0.082168
    99  H    0.071432
   100  H    0.088666
   101  H    0.067905
   102  H    0.065665
   103  H    0.054978
   104  H    0.067197
   105  H    0.072923
   106  H    0.078899
   107  H    0.075679
   108  H    0.075037
   109  H    0.073065
   110  H    0.056608
 Sum of Mulliken charges =  -0.00000

 Dipole moment (field-independent basis, Debye):
    X=              1.8332    Y=             -1.7929    Z=              2.7685  Tot=              3.7736
 Quadrupole moment (field-independent basis, Debye-Ang):
   XX=           -271.0645   YY=           -289.9903   ZZ=           -303.5539
   XY=             -3.5365   XZ=              9.4822   YZ=             -4.8883

 Summary of Natural Population Analysis:

                                       Natural Population
                Natural  -----------------------------------------------
    Atom  No    Charge         Core      Valence    Rydberg      Total
 -----------------------------------------------------------------------
      C    1   -0.05873      1.99992     4.05881    0.00000     6.05873
      C    2    0.01359      1.99990     3.98650    0.00000     5.98641
      C    3   -0.03419      1.99994     4.03424    0.00000     6.03419
      C    4   -0.09011      1.99993     4.09018    0.00000     6.09011
      C    5    0.11871      1.99986     3.88144    0.00000     5.88129
      C    6   -0.02539      1.99990     4.02549    0.00000     6.02539
      N    7   -0.27282      1.99998     5.27284    0.00000     7.27282
      C    8    0.01681      1.99996     3.98324    0.00000     5.98319
      C    9    0.17391      1.99996     3.82613    0.00000     5.82609
      C   10    0.07088      1.99994     3.92919    0.00000     5.92912
      C   11   -0.08460      1.99994     4.08467    0.00000     6.08460
      C   12   -0.07801      1.99996     4.07805    0.00000     6.07801
      C   13    0.06220      1.99998     3.93782    0.00000     5.93780
      N   14   -0.28393      1.99999     5.28394    0.00000     7.28393
      C   15    0.04138      1.99994     3.95868    0.00000     5.95862
      C   16   -0.05825      1.99996     4.05829    0.00000     6.05825
      C   17   -0.06421      1.99995     4.06426    0.00000     6.06421
      C   18   -0.06104      1.99994     4.06110    0.00000     6.06104
      C   19    0.03289      1.99995     3.96716    0.00000     5.96711
      C   20   -0.06092      1.99992     4.06100    0.00000     6.06092
      C   21   -0.07819      1.99994     4.07825    0.00000     6.07819
      C   22    0.39581      1.99990     3.60428    0.00000     5.60419
      O   23   -0.29928      1.99999     6.29929    0.00000     8.29928
      O   24   -0.27379      1.99999     6.27380    0.00000     8.27379
      C   25    0.03353      1.99984     3.96663    0.00000     5.96647
      C   26   -0.01372      1.99993     4.01379    0.00000     6.01372
      C   27   -0.08579      1.99996     4.08583    0.00000     6.08579
      C   28    0.01360      1.99990     3.98649    0.00000     5.98640
      C   29   -0.05181      1.99993     4.05189    0.00000     6.05181
      C   30   -0.03140      1.99994     4.03146    0.00000     6.03140
      C   31   -0.08958      1.99993     4.08965    0.00000     6.08958
      C   32    0.11156      1.99985     3.88859    0.00000     5.88844
      C   33   -0.02948      1.99990     4.02958    0.00000     6.02948
      N   34   -0.27557      1.99998     5.27559    0.00000     7.27557
      C   35    0.02168      1.99996     3.97836    0.00000     5.97832
      C   36    0.17147      1.99996     3.82857    0.00000     5.82853
      C   37    0.07325      1.99991     3.92684    0.00000     5.92675
      C   38   -0.08647      1.99994     4.08653    0.00000     6.08647
      C   39   -0.07299      1.99996     4.07304    0.00000     6.07299
      C   40    0.04985      1.99998     3.95017    0.00000     5.95015
      N   41    0.02585      1.99999     4.97416    0.00000     6.97415
      C   42    0.04340      1.99991     3.95669    0.00000     5.95660
      C   43   -0.08126      1.99997     4.08129    0.00000     6.08126
      C   44   -0.06979      1.99996     4.06983    0.00000     6.06979
      C   45   -0.08100      1.99994     4.08106    0.00000     6.08100
      C   46    0.03850      1.99992     3.96159    0.00000     5.96150
      C   47   -0.07508      1.99992     4.07516    0.00000     6.07508
      C   48   -0.08608      1.99995     4.08614    0.00000     6.08608
      C   49    0.40383      1.99991     3.59626    0.00000     5.59617
      O   50   -0.31356      1.99999     6.31358    0.00000     8.31356
      O   51   -0.26535      1.99999     6.26536    0.00000     8.26535
      C   52    0.03486      1.99984     3.96530    0.00000     5.96514
      C   53   -0.01663      1.99992     4.01670    0.00000     6.01663
      O   54   -0.50586      2.00000     6.50586    0.00000     8.50586
      H   55    0.03841      0.00000     0.96159    0.00000     0.96159
      H   56    0.02720      0.00000     0.97280    0.00000     0.97280
      H   57    0.03299      0.00000     0.96701    0.00000     0.96701
      H   58    0.01502      0.00000     0.98498    0.00000     0.98498
      H   59    0.03104      0.00000     0.96896    0.00000     0.96896
      H   60    0.02556      0.00000     0.97444    0.00000     0.97444
      H   61    0.02720      0.00000     0.97280    0.00000     0.97280
      H   62    0.02925      0.00000     0.97075    0.00000     0.97075
      H   63    0.01736      0.00000     0.98264    0.00000     0.98264
      H   64    0.03254      0.00000     0.96746    0.00000     0.96746
      H   65    0.02779      0.00000     0.97221    0.00000     0.97221
      H   66    0.03088      0.00000     0.96912    0.00000     0.96912
      H   67    0.02599      0.00000     0.97401    0.00000     0.97401
      H   68    0.02880      0.00000     0.97120    0.00000     0.97120
      H   69    0.03538      0.00000     0.96462    0.00000     0.96462
      H   70    0.03535      0.00000     0.96465    0.00000     0.96465
      H   71    0.03098      0.00000     0.96902    0.00000     0.96902
      H   72    0.02657      0.00000     0.97343    0.00000     0.97343
      H   73    0.02862      0.00000     0.97138    0.00000     0.97138
      H   74    0.04605      0.00000     0.95395    0.00000     0.95395
      H   75    0.03907      0.00000     0.96093    0.00000     0.96093
      H   76    0.04437      0.00000     0.95563    0.00000     0.95563
      H   77    0.04072      0.00000     0.95928    0.00000     0.95928
      H   78    0.04035      0.00000     0.95965    0.00000     0.95965
      H   79    0.02945      0.00000     0.97055    0.00000     0.97055
      H   80    0.04982      0.00000     0.95018    0.00000     0.95018
      H   81    0.04517      0.00000     0.95483    0.00000     0.95483
      H   82    0.03652      0.00000     0.96348    0.00000     0.96348
      H   83    0.04175      0.00000     0.95825    0.00000     0.95825
      H   84    0.06036      0.00000     0.93964    0.00000     0.93964
      H   85    0.02832      0.00000     0.97168    0.00000     0.97168
      H   86    0.03283      0.00000     0.96717    0.00000     0.96717
      H   87    0.05056      0.00000     0.94944    0.00000     0.94944
      H   88    0.03052      0.00000     0.96948    0.00000     0.96948
      H   89    0.03663      0.00000     0.96337    0.00000     0.96337
      H   90    0.03394      0.00000     0.96606    0.00000     0.96606
      H   91    0.03014      0.00000     0.96986    0.00000     0.96986
      H   92    0.05677      0.00000     0.94323    0.00000     0.94323
      H   93    0.04974      0.00000     0.95026    0.00000     0.95026
      H   94    0.04579      0.00000     0.95421    0.00000     0.95421
      H   95    0.03671      0.00000     0.96329    0.00000     0.96329
      H   96    0.03577      0.00000     0.96423    0.00000     0.96423
      H   97    0.03656      0.00000     0.96344    0.00000     0.96344
      H   98    0.05909      0.00000     0.94091    0.00000     0.94091
      H   99    0.04842      0.00000     0.95158    0.00000     0.95158
      H  100    0.05785      0.00000     0.94215    0.00000     0.94215
      H  101    0.03604      0.00000     0.96396    0.00000     0.96396
      H  102    0.04053      0.00000     0.95947    0.00000     0.95947
      H  103    0.03281      0.00000     0.96719    0.00000     0.96719
      H  104    0.04442      0.00000     0.95558    0.00000     0.95558
      H  105    0.04128      0.00000     0.95872    0.00000     0.95872
      H  106    0.04764      0.00000     0.95236    0.00000     0.95236
      H  107    0.04406      0.00000     0.95594    0.00000     0.95594
      H  108    0.05066      0.00000     0.94934    0.00000     0.94934
      H  109    0.04862      0.00000     0.95138    0.00000     0.95138
      H  110    0.03108      0.00000     0.96892    0.00000     0.96892
 =======================================================================
   * Total *   -0.00000    107.99669   286.00331    0.00000   394.00000

 Normal termination of Gaussian 16 at Thu May 30 09:25:37 2024.
