 Gaussian 16, Revision B.01,
 Gaussian 16:  ES64L-G16RevB.01 20-Dec-2017

 ----------------------------------------------
 # nmr=giao hf/sto-3g pop=nbo geom=connectivity
 ----------------------------------------------

 ------------------
 pleiokomenine_C_1a
 ------------------
 Symbolic Z-matrix:
 Charge =  0 Multiplicity = 1

                         Standard orientation:
 ---------------------------------------------------------------------
 Center     Atomic      Atomic             Coordinates (Angstroms)
 Number     Number       Type             X           Y           Z
 ---------------------------------------------------------------------
      1          6           0        2.222084    0.174116   -1.738328
      2          6           0        1.137191   -0.583594   -2.198112
      3          6           0        1.026086   -1.937328   -1.814995
      4          6           0        1.989265   -2.545485   -0.999881
      5          6           0        3.072830   -1.798907   -0.571936
      6          6           0        3.167754   -0.442718   -0.931584
      7          7           0        4.172245   -2.224798    0.221277
      8          6           0        4.366682    0.157678   -0.240313
      9          6           0        5.188503   -1.178174   -0.054489
     10          6           0        5.244328    1.193533   -0.958576
     11          6           0        5.929656   -1.519526   -1.420520
     12          6           0        6.927110   -0.419059   -1.803109
     13          6           0        6.749973    0.773897   -0.843832
     14          7           0        4.888818    2.474774   -0.344248
     15          6           0        5.817478    3.565120   -0.603287
     16          6           0        7.295913    3.208868   -0.452320
     17          6           0        7.649869    1.951351   -1.245890
     18          6           0        3.821723    0.903970    1.001834
     19          6           0        4.560620    2.234791    1.052633
     20          6           0        7.149040    0.232540    0.571306
     21          6           0        6.329083   -1.025903    0.967262
     22          6           0        5.942528   -1.022102    2.435855
     23          8           0        5.977179   -0.042235    3.170092
     24          8           0        5.625703   -2.279520    2.854075
     25          6           0        5.210283   -2.355763    4.217393
     26          6           0        4.507531   -3.639325    0.167123
     27          6           0        0.066841    0.058331   -3.051214
     28          6           0       -1.028428    0.715744   -2.242189
     29          6           0       -2.079912   -0.054934   -1.729292
     30          6           0       -0.978651    2.095484   -1.957045
     31          6           0       -1.977688    2.716903   -1.197247
     32          6           0       -3.026031    1.952984   -0.714172
     33          6           0       -3.045663    0.567954   -0.952649
     34          7           0       -4.159258    2.389807    0.024492
     35          6           0       -4.212588   -0.027752   -0.206782
     36          6           0       -5.112101    1.267263   -0.144118
     37          6           0       -5.011628   -1.167554   -0.832342
     38          6           0       -5.878188    1.415245   -1.528497
     39          6           0       -6.819702    0.223047   -1.766571
     40          6           0       -6.534173   -0.870489   -0.709482
     41          7           0       -4.526011   -2.481828   -0.206878
     42          6           0       -5.599329   -3.180612    0.591277
     43          6           0       -6.906549   -3.350010   -0.170229
     44          6           0       -7.329556   -2.142791   -1.008620
     45          6           0       -3.671839   -0.644330    1.090331
     46          6           0       -3.380028   -2.081625    0.699142
     47          6           0       -6.944057   -0.223280    0.660590
     48          6           0       -6.243060    1.149136    0.894363
     49          6           0       -5.872487    1.380442    2.352014
     50          8           0       -5.872406    0.515147    3.219008
     51          8           0       -5.629799    2.698606    2.588743
     52          6           0       -5.247657    2.994696    3.932140
     53          6           0       -4.574194    3.769494   -0.189700
     54          8           0       -4.069686   -3.333493   -1.182014
     55          1           0        2.310957    1.229810   -1.977271
     56          1           0        0.172976   -2.527570   -2.145830
     57          1           0        1.870410   -3.584950   -0.717242
     58          1           0        4.977257    1.260570   -2.022026
     59          1           0        6.467831   -2.472760   -1.339770
     60          1           0        5.219088   -1.657262   -2.245061
     61          1           0        7.951815   -0.808512   -1.753181
     62          1           0        6.763012   -0.119767   -2.845738
     63          1           0        5.652719    3.900947   -1.635400
     64          1           0        5.577235    4.431027    0.025596
     65          1           0        7.907065    4.045006   -0.811961
     66          1           0        7.544915    3.077775    0.606377
     67          1           0        7.529921    2.163754   -2.316226
     68          1           0        8.707019    1.703227   -1.093183
     69          1           0        2.752006    1.133474    0.889052
     70          1           0        3.892212    0.342494    1.932648
     71          1           0        3.912316    3.023274    1.449924
     72          1           0        5.438794    2.180640    1.697982
     73          1           0        8.211761   -0.049529    0.558707
     74          1           0        7.089051    1.016119    1.326743
     75          1           0        7.013760   -1.883022    0.873910
     76          1           0        4.339497   -1.715976    4.391719
     77          1           0        4.925728   -3.390535    4.427164
     78          1           0        6.034356   -2.080929    4.883028
     79          1           0        4.607455   -3.999691   -0.862932
     80          1           0        3.739823   -4.233870    0.673838
     81          1           0        5.453031   -3.833941    0.682478
     82          1           0        0.527571    0.794070   -3.723788
     83          1           0       -0.374623   -0.691644   -3.721149
     84          1           0       -2.125080   -1.124168   -1.922461
     85          1           0       -0.151152    2.696667   -2.328156
     86          1           0       -1.913811    3.780420   -0.998277
     87          1           0       -4.755652   -1.275466   -1.896512
     88          1           0       -5.179471    1.492133   -2.370926
     89          1           0       -6.465615    2.341928   -1.552260
     90          1           0       -7.864644    0.553409   -1.707018
     91          1           0       -6.676017   -0.157573   -2.785462
     92          1           0       -5.186946   -4.160591    0.862402
     93          1           0       -5.735903   -2.623591    1.519925
     94          1           0       -6.830571   -4.221867   -0.832234
     95          1           0       -7.698798   -3.592421    0.548380
     96          1           0       -7.194946   -2.407681   -2.066411
     97          1           0       -8.405539   -1.967641   -0.885725
     98          1           0       -2.783083   -0.148937    1.495804
     99          1           0       -4.414208   -0.677887    1.881785
    100          1           0       -3.338888   -2.769679    1.548883
    101          1           0       -2.457038   -2.178482    0.119628
    102          1           0       -6.770111   -0.904756    1.492639
    103          1           0       -8.030121   -0.053418    0.666387
    104          1           0       -7.001373    1.921546    0.691992
    105          1           0       -6.070389    2.774798    4.619456
    106          1           0       -5.021519    4.062816    3.992026
    107          1           0       -4.348819    2.434968    4.209582
    108          1           0       -5.543314    3.961737    0.280834
    109          1           0       -3.855481    4.459734    0.264820
    110          1           0       -4.668121    4.010100   -1.254879
 ---------------------------------------------------------------------

 SCF Done:  E(RHF) =  -2300.22121974     A.U. after   15 cycles

      1  C    Isotropic =   124.3128   Anisotropy =   148.5308

      2  C    Isotropic =   120.4872   Anisotropy =   157.0241

      3  C    Isotropic =   118.8869   Anisotropy =   154.3674

      4  C    Isotropic =   133.5480   Anisotropy =   143.5353

      5  C    Isotropic =   108.9232   Anisotropy =   127.1686

      6  C    Isotropic =   117.5809   Anisotropy =   139.8765

      7  N    Isotropic =   274.3890   Anisotropy =    83.3285

      8  C    Isotropic =   195.8497   Anisotropy =    12.8537

      9  C    Isotropic =   181.1286   Anisotropy =    44.8577

     10  C    Isotropic =   190.2362   Anisotropy =    29.2634

     11  C    Isotropic =   213.7649   Anisotropy =    19.5399

     12  C    Isotropic =   212.8487   Anisotropy =    20.9259

     13  C    Isotropic =   213.6588   Anisotropy =     8.7687

     14  N    Isotropic =   302.9234   Anisotropy =    54.0630

     15  C    Isotropic =   205.2876   Anisotropy =    35.0447

     16  C    Isotropic =   224.2040   Anisotropy =     8.7195

     17  C    Isotropic =   215.2681   Anisotropy =    20.2364

     18  C    Isotropic =   210.7037   Anisotropy =    36.3778

     19  C    Isotropic =   199.8283   Anisotropy =    41.7930

     20  C    Isotropic =   212.2652   Anisotropy =    21.1182

     21  C    Isotropic =   209.0987   Anisotropy =     9.7529

     22  C    Isotropic =    96.4338   Anisotropy =    98.9643

     23  O    Isotropic =  -134.2295   Anisotropy =   887.7403

     24  O    Isotropic =   284.0537   Anisotropy =   139.1496

     25  C    Isotropic =   197.4305   Anisotropy =    57.1050

     26  C    Isotropic =   209.9023   Anisotropy =    41.1586

     27  C    Isotropic =   206.6428   Anisotropy =    15.8605

     28  C    Isotropic =   120.0560   Anisotropy =   157.8914

     29  C    Isotropic =   123.7639   Anisotropy =   150.1771

     30  C    Isotropic =   118.6608   Anisotropy =   153.7566

     31  C    Isotropic =   133.6596   Anisotropy =   143.0508

     32  C    Isotropic =   108.8861   Anisotropy =   126.9739

     33  C    Isotropic =   120.9953   Anisotropy =   134.9090

     34  N    Isotropic =   274.3651   Anisotropy =    82.6601

     35  C    Isotropic =   197.5323   Anisotropy =    14.3982

     36  C    Isotropic =   180.7344   Anisotropy =    44.8722

     37  C    Isotropic =   175.7681   Anisotropy =    56.5892

     38  C    Isotropic =   213.5665   Anisotropy =    19.2355

     39  C    Isotropic =   211.8395   Anisotropy =    22.3723

     40  C    Isotropic =   211.0333   Anisotropy =     9.9021

     41  N    Isotropic =   226.8652   Anisotropy =    56.1119

     42  C    Isotropic =   196.7143   Anisotropy =    47.5603

     43  C    Isotropic =   221.7482   Anisotropy =    10.7448

     44  C    Isotropic =   217.7631   Anisotropy =    21.5231

     45  C    Isotropic =   214.1304   Anisotropy =    28.0802

     46  C    Isotropic =   187.0175   Anisotropy =    61.9142

     47  C    Isotropic =   212.0690   Anisotropy =    23.2979

     48  C    Isotropic =   208.3917   Anisotropy =    10.2716

     49  C    Isotropic =    96.1601   Anisotropy =    98.2369

     50  O    Isotropic =  -131.5074   Anisotropy =   882.8574

     51  O    Isotropic =   282.9814   Anisotropy =   138.2202

     52  C    Isotropic =   197.2546   Anisotropy =    57.4690

     53  C    Isotropic =   209.5281   Anisotropy =    41.6911

     54  O    Isotropic =    26.3665   Anisotropy =   457.0473

     55  H    Isotropic =    25.6444   Anisotropy =    15.5135

     56  H    Isotropic =    25.3210   Anisotropy =     6.2539

     57  H    Isotropic =    26.5049   Anisotropy =     9.0361

     58  H    Isotropic =    31.4795   Anisotropy =     8.8641

     59  H    Isotropic =    32.1754   Anisotropy =    13.3437

     60  H    Isotropic =    32.8939   Anisotropy =     8.8592

     61  H    Isotropic =    32.3588   Anisotropy =    15.1946

     62  H    Isotropic =    32.5620   Anisotropy =    13.5362

     63  H    Isotropic =    31.7632   Anisotropy =    14.5604

     64  H    Isotropic =    31.7940   Anisotropy =    15.1229

     65  H    Isotropic =    32.6356   Anisotropy =    18.0759

     66  H    Isotropic =    32.5349   Anisotropy =    10.6527

     67  H    Isotropic =    32.6220   Anisotropy =    13.3238

     68  H    Isotropic =    32.4769   Anisotropy =    14.8064

     69  H    Isotropic =    32.6760   Anisotropy =    14.3092

     70  H    Isotropic =    33.1180   Anisotropy =    10.0035

     71  H    Isotropic =    31.9423   Anisotropy =    15.2900

     72  H    Isotropic =    32.0035   Anisotropy =     9.0118

     73  H    Isotropic =    32.2368   Anisotropy =    14.8801

     74  H    Isotropic =    31.3921   Anisotropy =     9.4480

     75  H    Isotropic =    31.2275   Anisotropy =    12.3075

     76  H    Isotropic =    30.7471   Anisotropy =     7.7032

     77  H    Isotropic =    30.5968   Anisotropy =    11.6333

     78  H    Isotropic =    30.6235   Anisotropy =    11.7729

     79  H    Isotropic =    31.8815   Anisotropy =    11.5205

     80  H    Isotropic =    30.7350   Anisotropy =    13.8921

     81  H    Isotropic =    30.9276   Anisotropy =    10.6761

     82  H    Isotropic =    29.9013   Anisotropy =    10.0007

     83  H    Isotropic =    29.8239   Anisotropy =     9.6759

     84  H    Isotropic =    25.2418   Anisotropy =    15.2697

     85  H    Isotropic =    25.4387   Anisotropy =     6.4499

     86  H    Isotropic =    26.5138   Anisotropy =     8.7580

     87  H    Isotropic =    30.5035   Anisotropy =     6.4657

     88  H    Isotropic =    32.7731   Anisotropy =     8.7051

     89  H    Isotropic =    32.1161   Anisotropy =    13.5702

     90  H    Isotropic =    32.1552   Anisotropy =    15.2618

     91  H    Isotropic =    32.2792   Anisotropy =    13.6343

     92  H    Isotropic =    30.8707   Anisotropy =    13.9608

     93  H    Isotropic =    31.8304   Anisotropy =     6.8456

     94  H    Isotropic =    31.2118   Anisotropy =    16.3122

     95  H    Isotropic =    32.1987   Anisotropy =    16.2048

     96  H    Isotropic =    31.9207   Anisotropy =    13.6480

     97  H    Isotropic =    32.2850   Anisotropy =    15.0360

     98  H    Isotropic =    33.2168   Anisotropy =    11.4799

     99  H    Isotropic =    32.7412   Anisotropy =    10.5503

    100  H    Isotropic =    31.3415   Anisotropy =    12.3518

    101  H    Isotropic =    30.5815   Anisotropy =    14.8989

    102  H    Isotropic =    31.5435   Anisotropy =     9.2720

    103  H    Isotropic =    32.0794   Anisotropy =    15.0159

    104  H    Isotropic =    31.2088   Anisotropy =    12.2657

    105  H    Isotropic =    30.5924   Anisotropy =    11.8296

    106  H    Isotropic =    30.5445   Anisotropy =    11.5546

    107  H    Isotropic =    30.6991   Anisotropy =     7.7631

    108  H    Isotropic =    30.9045   Anisotropy =    10.7457

    109  H    Isotropic =    30.6885   Anisotropy =    13.8720

    110  H    Isotropic =    31.8790   Anisotropy =    11.5716

 The electronic state is 1-A.
 Alpha  occ. eigenvalues --  -20.31168 -20.30347 -20.25139 -20.24297 -19.91404
 Alpha  occ. eigenvalues --  -15.47982 -15.33981 -15.33078 -15.30196 -11.17167
 Alpha  occ. eigenvalues --  -11.16223 -11.10924 -11.10301 -11.10207 -11.09101
 Alpha  occ. eigenvalues --  -11.09024 -11.08452 -11.08356 -11.08173 -11.07503
 Alpha  occ. eigenvalues --  -11.07163 -11.07098 -11.06989 -11.06727 -11.06573
 Alpha  occ. eigenvalues --  -11.06086 -11.05821 -11.05759 -11.05460 -11.05434
 Alpha  occ. eigenvalues --  -11.05280 -11.05253 -11.05035 -11.05019 -11.04837
 Alpha  occ. eigenvalues --  -11.04812 -11.04529 -11.04089 -11.03925 -11.03895
 Alpha  occ. eigenvalues --  -11.03675 -11.03642 -11.03545 -11.03276 -11.01970
 Alpha  occ. eigenvalues --  -11.01826 -11.01806 -11.01709 -11.01478 -11.01402
 Alpha  occ. eigenvalues --  -11.01239 -11.01081 -11.00931 -11.00731  -1.38382
 Alpha  occ. eigenvalues --   -1.37563  -1.28213  -1.27804  -1.27360  -1.21418
 Alpha  occ. eigenvalues --   -1.20996  -1.18463  -1.11816  -1.09318  -1.08803
 Alpha  occ. eigenvalues --   -1.07337  -1.06122  -1.04554  -1.03437  -1.00706
 Alpha  occ. eigenvalues --   -1.00159  -0.98804  -0.98238  -0.97604  -0.96714
 Alpha  occ. eigenvalues --   -0.96433  -0.94148  -0.94100  -0.93878  -0.92329
 Alpha  occ. eigenvalues --   -0.92047  -0.91346  -0.91229  -0.89324  -0.87861
 Alpha  occ. eigenvalues --   -0.86552  -0.84846  -0.82750  -0.82295  -0.81601
 Alpha  occ. eigenvalues --   -0.80566  -0.79207  -0.78929  -0.78232  -0.77246
 Alpha  occ. eigenvalues --   -0.76848  -0.74663  -0.73599  -0.72866  -0.72024
 Alpha  occ. eigenvalues --   -0.71166  -0.69757  -0.69279  -0.69108  -0.66461
 Alpha  occ. eigenvalues --   -0.65591  -0.65278  -0.64576  -0.64467  -0.63741
 Alpha  occ. eigenvalues --   -0.62954  -0.61847  -0.61743  -0.61552  -0.60815
 Alpha  occ. eigenvalues --   -0.60620  -0.60291  -0.59452  -0.59259  -0.58640
 Alpha  occ. eigenvalues --   -0.58360  -0.58258  -0.57990  -0.57776  -0.57538
 Alpha  occ. eigenvalues --   -0.56991  -0.56752  -0.56374  -0.55916  -0.55527
 Alpha  occ. eigenvalues --   -0.55194  -0.55002  -0.54682  -0.54356  -0.54199
 Alpha  occ. eigenvalues --   -0.53548  -0.53498  -0.53006  -0.52648  -0.52086
 Alpha  occ. eigenvalues --   -0.51504  -0.51413  -0.51103  -0.50750  -0.50508
 Alpha  occ. eigenvalues --   -0.50375  -0.49712  -0.49486  -0.49105  -0.49007
 Alpha  occ. eigenvalues --   -0.48550  -0.48032  -0.47970  -0.47525  -0.47344
 Alpha  occ. eigenvalues --   -0.47066  -0.46530  -0.45875  -0.45774  -0.45507
 Alpha  occ. eigenvalues --   -0.45131  -0.44618  -0.44561  -0.44498  -0.44097
 Alpha  occ. eigenvalues --   -0.44074  -0.43274  -0.43172  -0.42542  -0.42280
 Alpha  occ. eigenvalues --   -0.42086  -0.41882  -0.41591  -0.41580  -0.41079
 Alpha  occ. eigenvalues --   -0.40933  -0.40100  -0.39173  -0.38976  -0.38116
 Alpha  occ. eigenvalues --   -0.37654  -0.37036  -0.36114  -0.35835  -0.34637
 Alpha  occ. eigenvalues --   -0.33839  -0.33733  -0.33046  -0.32450  -0.31623
 Alpha  occ. eigenvalues --   -0.27110  -0.26626  -0.25712  -0.21343  -0.20125
 Alpha  occ. eigenvalues --   -0.15037  -0.14782
 Alpha virt. eigenvalues --    0.26799   0.27228   0.27973   0.29658   0.29913
 Alpha virt. eigenvalues --    0.30754   0.46494   0.47042   0.48506   0.48659
 Alpha virt. eigenvalues --    0.49645   0.50008   0.50721   0.51013   0.52662

 Mulliken charges:
               1
     1  C   -0.073670
     2  C   -0.000228
     3  C   -0.062237
     4  C   -0.090069
     5  C    0.088866
     6  C   -0.013511
     7  N   -0.286784
     8  C    0.018345
     9  C    0.128177
    10  C    0.040789
    11  C   -0.114935
    12  C   -0.105553
    13  C    0.027903
    14  N   -0.291283
    15  C   -0.014626
    16  C   -0.108224
    17  C   -0.101961
    18  C   -0.105445
    19  C   -0.019415
    20  C   -0.110509
    21  C   -0.066371
    22  C    0.319707
    23  O   -0.277412
    24  O   -0.255188
    25  C   -0.055697
    26  C   -0.078867
    27  C   -0.109824
    28  C    0.002218
    29  C   -0.073565
    30  C   -0.059748
    31  C   -0.089997
    32  C    0.090096
    33  C   -0.019731
    34  N   -0.285960
    35  C    0.014540
    36  C    0.128831
    37  C    0.033960
    38  C   -0.115570
    39  C   -0.104003
    40  C    0.032509
    41  N   -0.074052
    42  C   -0.008226
    43  C   -0.101793
    44  C   -0.101911
    45  C   -0.120121
    46  C   -0.013339
    47  C   -0.111300
    48  C   -0.065895
    49  C    0.321160
    50  O   -0.278947
    51  O   -0.254389
    52  C   -0.055314
    53  C   -0.078831
    54  O   -0.455757
    55  H    0.064327
    56  H    0.060982
    57  H    0.059520
    58  H    0.056261
    59  H    0.050458
    60  H    0.054947
    61  H    0.047811
    62  H    0.050287
    63  H    0.053406
    64  H    0.061096
    65  H    0.053272
    66  H    0.050455
    67  H    0.049954
    68  H    0.051056
    69  H    0.063913
    70  H    0.062848
    71  H    0.056586
    72  H    0.050873
    73  H    0.050842
    74  H    0.067734
    75  H    0.064635
    76  H    0.074582
    77  H    0.077188
    78  H    0.071900
    79  H    0.055565
    80  H    0.072130
    81  H    0.075555
    82  H    0.057087
    83  H    0.060626
    84  H    0.075965
    85  H    0.058374
    86  H    0.059229
    87  H    0.092308
    88  H    0.057378
    89  H    0.052989
    90  H    0.051239
    91  H    0.056980
    92  H    0.087072
    93  H    0.060324
    94  H    0.076204
    95  H    0.059077
    96  H    0.064366
    97  H    0.054645
    98  H    0.072868
    99  H    0.069641
   100  H    0.074090
   101  H    0.094236
   102  H    0.065285
   103  H    0.055651
   104  H    0.066556
   105  H    0.072959
   106  H    0.078562
   107  H    0.075960
   108  H    0.076185
   109  H    0.072912
   110  H    0.056206
 Sum of Mulliken charges =  -0.00000

 Dipole moment (field-independent basis, Debye):
    X=             -0.8074    Y=              2.5353    Z=              1.6247  Tot=              3.1176
 Quadrupole moment (field-independent basis, Debye-Ang):
   XX=           -258.6211   YY=           -303.6690   ZZ=           -301.1825
   XY=            -20.7337   XZ=             -9.1256   YZ=            -10.0833

 Summary of Natural Population Analysis:

                                       Natural Population
                Natural  -----------------------------------------------
    Atom  No    Charge         Core      Valence    Rydberg      Total
 -----------------------------------------------------------------------
      C    1   -0.05487      1.99993     4.05495    0.00000     6.05487
      C    2    0.01303      1.99990     3.98707    0.00000     5.98697
      C    3   -0.03334      1.99994     4.03340    0.00000     6.03334
      C    4   -0.08728      1.99993     4.08734    0.00000     6.08728
      C    5    0.11213      1.99985     3.88802    0.00000     5.88787
      C    6   -0.02483      1.99990     4.02493    0.00000     6.02483
      N    7   -0.27530      1.99998     5.27532    0.00000     7.27530
      C    8    0.02025      1.99996     3.97979    0.00000     5.97975
      C    9    0.17137      1.99996     3.82867    0.00000     5.82863
      C   10    0.07436      1.99993     3.92571    0.00000     5.92564
      C   11   -0.08519      1.99994     4.08525    0.00000     6.08519
      C   12   -0.07376      1.99996     4.07380    0.00000     6.07376
      C   13    0.05020      1.99998     3.94982    0.00000     5.94980
      N   14   -0.27967      1.99999     5.27968    0.00000     7.27967
      C   15    0.03890      1.99994     3.96116    0.00000     5.96110
      C   16   -0.07459      1.99997     4.07462    0.00000     6.07459
      C   17   -0.06817      1.99996     4.06821    0.00000     6.06817
      C   18   -0.07559      1.99995     4.07564    0.00000     6.07559
      C   19    0.03394      1.99994     3.96611    0.00000     5.96606
      C   20   -0.07375      1.99992     4.07383    0.00000     6.07375
      C   21   -0.08422      1.99994     4.08428    0.00000     6.08422
      C   22    0.40309      1.99991     3.59699    0.00000     5.59691
      O   23   -0.31162      1.99999     6.31163    0.00000     8.31162
      O   24   -0.26679      1.99999     6.26680    0.00000     8.26679
      C   25    0.03471      1.99984     3.96545    0.00000     5.96529
      C   26   -0.01618      1.99992     4.01626    0.00000     6.01618
      C   27   -0.08721      1.99996     4.08725    0.00000     6.08721
      C   28    0.01570      1.99990     3.98440    0.00000     5.98430
      C   29   -0.05345      1.99993     4.05353    0.00000     6.05345
      C   30   -0.03033      1.99994     4.03039    0.00000     6.03033
      C   31   -0.08787      1.99993     4.08794    0.00000     6.08787
      C   32    0.11428      1.99985     3.88587    0.00000     5.88572
      C   33   -0.03310      1.99990     4.03320    0.00000     6.03310
      N   34   -0.27449      1.99998     5.27451    0.00000     7.27449
      C   35    0.01304      1.99996     3.98700    0.00000     5.98696
      C   36    0.17189      1.99996     3.82815    0.00000     5.82811
      C   37    0.06486      1.99990     3.93524    0.00000     5.93514
      C   38   -0.08611      1.99994     4.08617    0.00000     6.08611
      C   39   -0.07097      1.99995     4.07101    0.00000     6.07097
      C   40    0.05508      1.99998     3.94494    0.00000     5.94492
      N   41    0.04017      1.99999     4.95984    0.00000     6.95983
      C   42    0.04545      1.99990     3.95465    0.00000     5.95455
      C   43   -0.07218      1.99996     4.07221    0.00000     6.07218
      C   44   -0.07078      1.99995     4.07083    0.00000     6.07078
      C   45   -0.09450      1.99995     4.09455    0.00000     6.09450
      C   46    0.03808      1.99991     3.96201    0.00000     5.96192
      C   47   -0.07386      1.99992     4.07394    0.00000     6.07386
      C   48   -0.08286      1.99994     4.08291    0.00000     6.08286
      C   49    0.40441      1.99991     3.59568    0.00000     5.59559
      O   50   -0.31359      1.99998     6.31360    0.00000     8.31359
      O   51   -0.26599      1.99999     6.26599    0.00000     8.26599
      C   52    0.03527      1.99984     3.96489    0.00000     5.96473
      C   53   -0.01595      1.99992     4.01603    0.00000     6.01595
      O   54   -0.50937      2.00000     6.50937    0.00000     8.50937
      H   55    0.03828      0.00000     0.96172    0.00000     0.96172
      H   56    0.03333      0.00000     0.96667    0.00000     0.96667
      H   57    0.03534      0.00000     0.96466    0.00000     0.96466
      H   58    0.02502      0.00000     0.97498    0.00000     0.97498
      H   59    0.02837      0.00000     0.97163    0.00000     0.97163
      H   60    0.03200      0.00000     0.96800    0.00000     0.96800
      H   61    0.02691      0.00000     0.97309    0.00000     0.97309
      H   62    0.02927      0.00000     0.97073    0.00000     0.97073
      H   63    0.02639      0.00000     0.97361    0.00000     0.97361
      H   64    0.03533      0.00000     0.96467    0.00000     0.96467
      H   65    0.03345      0.00000     0.96655    0.00000     0.96655
      H   66    0.02990      0.00000     0.97010    0.00000     0.97010
      H   67    0.02917      0.00000     0.97083    0.00000     0.97083
      H   68    0.03021      0.00000     0.96979    0.00000     0.96979
      H   69    0.04258      0.00000     0.95742    0.00000     0.95742
      H   70    0.04031      0.00000     0.95969    0.00000     0.95969
      H   71    0.03043      0.00000     0.96957    0.00000     0.96957
      H   72    0.02189      0.00000     0.97811    0.00000     0.97811
      H   73    0.02873      0.00000     0.97127    0.00000     0.97127
      H   74    0.04248      0.00000     0.95752    0.00000     0.95752
      H   75    0.04184      0.00000     0.95816    0.00000     0.95816
      H   76    0.04310      0.00000     0.95690    0.00000     0.95690
      H   77    0.04613      0.00000     0.95387    0.00000     0.95387
      H   78    0.04040      0.00000     0.95960    0.00000     0.95960
      H   79    0.03014      0.00000     0.96986    0.00000     0.96986
      H   80    0.04773      0.00000     0.95227    0.00000     0.95227
      H   81    0.05123      0.00000     0.94877    0.00000     0.94877
      H   82    0.03842      0.00000     0.96158    0.00000     0.96158
      H   83    0.04178      0.00000     0.95822    0.00000     0.95822
      H   84    0.04881      0.00000     0.95119    0.00000     0.95119
      H   85    0.03085      0.00000     0.96915    0.00000     0.96915
      H   86    0.03514      0.00000     0.96486    0.00000     0.96486
      H   87    0.05609      0.00000     0.94391    0.00000     0.94391
      H   88    0.03406      0.00000     0.96594    0.00000     0.96594
      H   89    0.03065      0.00000     0.96935    0.00000     0.96935
      H   90    0.02964      0.00000     0.97036    0.00000     0.97036
      H   91    0.03485      0.00000     0.96515    0.00000     0.96515
      H   92    0.05571      0.00000     0.94429    0.00000     0.94429
      H   93    0.02902      0.00000     0.97098    0.00000     0.97098
      H   94    0.05388      0.00000     0.94612    0.00000     0.94612
      H   95    0.03887      0.00000     0.96113    0.00000     0.96113
      H   96    0.04266      0.00000     0.95734    0.00000     0.95734
      H   97    0.03395      0.00000     0.96605    0.00000     0.96605
      H   98    0.05229      0.00000     0.94771    0.00000     0.94771
      H   99    0.04595      0.00000     0.95405    0.00000     0.95405
      H  100    0.04408      0.00000     0.95592    0.00000     0.95592
      H  101    0.06121      0.00000     0.93879    0.00000     0.93879
      H  102    0.03969      0.00000     0.96031    0.00000     0.96031
      H  103    0.03298      0.00000     0.96702    0.00000     0.96702
      H  104    0.04329      0.00000     0.95671    0.00000     0.95671
      H  105    0.04129      0.00000     0.95871    0.00000     0.95871
      H  106    0.04731      0.00000     0.95269    0.00000     0.95269
      H  107    0.04432      0.00000     0.95568    0.00000     0.95568
      H  108    0.05171      0.00000     0.94829    0.00000     0.94829
      H  109    0.04835      0.00000     0.95165    0.00000     0.95165
      H  110    0.03068      0.00000     0.96932    0.00000     0.96932
 =======================================================================
   * Total *   -0.00000    107.99668   286.00332    0.00000   394.00000

 Normal termination of Gaussian 16 at Thu May 30 09:12:23 2024.
