 Gaussian 16, Revision B.01,
 Gaussian 16:  ES64L-G16RevB.01 20-Dec-2017

 ----------------------------------------------
 # nmr=giao hf/sto-3g pop=nbo geom=connectivity
 ----------------------------------------------

 -----------------
 Pleiokomenine_C_2
 -----------------
 Symbolic Z-matrix:
 Charge =  0 Multiplicity = 1

                         Standard orientation:
 ---------------------------------------------------------------------
 Center     Atomic      Atomic             Coordinates (Angstroms)
 Number     Number       Type             X           Y           Z
 ---------------------------------------------------------------------
      1          6           0       -1.813831    1.966016   -1.368624
      2          6           0       -1.323675    3.268200   -1.200497
      3          6           0       -1.884068    4.093089   -0.203049
      4          6           0       -2.926826    3.638621    0.616816
      5          6           0       -3.397900    2.348189    0.450413
      6          6           0       -2.814370    1.518265   -0.521304
      7          7           0       -4.435988    1.691789    1.163493
      8          6           0       -3.383067    0.129947   -0.375174
      9          6           0       -4.757948    0.540604    0.281614
     10          6           0       -3.644492   -0.740527   -1.611243
     11          6           0       -5.749200    1.016841   -0.866349
     12          6           0       -6.030145   -0.116103   -1.863203
     13          6           0       -5.103725   -1.307552   -1.546305
     14          7           0       -2.561811   -1.731783   -1.605748
     15          6           0       -2.781743   -2.881210   -2.473591
     16          6           0       -4.179632   -3.495547   -2.403613
     17          6           0       -5.266278   -2.434172   -2.576351
     18          6           0       -2.346410   -0.673141    0.451100
     19          6           0       -2.238302   -2.035504   -0.219849
     20          6           0       -5.532552   -1.797190   -0.120717
     21          6           0       -5.476091   -0.655367    0.930821
     22          6           0       -4.942007   -1.131667    2.270077
     23          8           0       -4.311126   -2.166546    2.447641
     24          8           0       -5.323228   -0.286492    3.268265
     25          6           0       -4.829631   -0.643782    4.559026
     26          6           0       -5.482551    2.536440    1.718045
     27          6           0       -0.134510    3.742404   -2.010710
     28          6           0        1.190957    3.376739   -1.373097
     29          6           0        1.571950    2.029116   -1.276586
     30          6           0        2.038590    4.376754   -0.847078
     31          6           0        3.238720    4.048517   -0.202311
     32          6           0        3.574279    2.712807   -0.073108
     33          6           0        2.745934    1.713684   -0.616425
     34          7           0        4.674076    2.185264    0.694806
     35          6           0        3.422452    0.379787   -0.426626
     36          6           0        4.232255    0.766195    0.853425
     37          6           0        2.634261   -0.881478   -0.101136
     38          6           0        3.195729    0.893894    2.117670
     39          6           0        2.285568   -0.324507    2.259186
     40          6           0        2.803962   -1.423170    1.326439
     41          7           0        3.071369   -1.916071   -1.123918
     42          6           0        2.062181   -3.018225   -1.123079
     43          6           0        2.072253   -3.689483    0.263755
     44          6           0        1.947200   -2.706523    1.449401
     45          6           0        4.043191    0.075945   -1.819433
     46          6           0        3.199208   -1.094456   -2.353491
     47          6           0        4.305088   -1.608246    1.727922
     48          6           0        5.184313   -0.345013    1.370208
     49          6           0        6.401447   -0.742296    0.542067
     50          8           0        6.885292   -0.113746   -0.388454
     51          8           0        6.996499   -1.847281    1.089491
     52          6           0        8.117540   -2.329130    0.350377
     53          6           0        5.950303    2.521977    0.081315
     54          8           0        4.307869   -2.471425   -0.903429
     55          1           0       -1.384005    1.293246   -2.104113
     56          1           0       -1.491978    5.095806   -0.045408
     57          1           0       -3.331042    4.292692    1.380795
     58          1           0       -3.536222   -0.152764   -2.533021
     59          1           0       -6.700775    1.356831   -0.437849
     60          1           0       -5.352759    1.881649   -1.412974
     61          1           0       -7.083759   -0.416606   -1.800724
     62          1           0       -5.875048    0.247386   -2.886637
     63          1           0       -2.607126   -2.552079   -3.506233
     64          1           0       -2.026046   -3.653230   -2.283388
     65          1           0       -4.282821   -4.247285   -3.195064
     66          1           0       -4.309420   -4.027348   -1.454913
     67          1           0       -5.200547   -2.023176   -3.592173
     68          1           0       -6.255188   -2.900044   -2.491187
     69          1           0       -1.350182   -0.209161    0.397611
     70          1           0       -2.568959   -0.737138    1.515570
     71          1           0       -1.222375   -2.433438   -0.127083
     72          1           0       -2.913666   -2.762897    0.232347
     73          1           0       -4.958188   -2.670149    0.189562
     74          1           0       -6.569637   -2.159941   -0.166139
     75          1           0       -6.520280   -0.377871    1.142218
     76          1           0       -5.147467    0.125656    5.267962
     77          1           0       -3.735581   -0.680628    4.556569
     78          1           0       -5.250304   -1.602964    4.876081
     79          1           0       -5.898577    3.219998    0.969316
     80          1           0       -5.094744    3.126834    2.555088
     81          1           0       -6.304153    1.928934    2.109834
     82          1           0       -0.176854    3.313359   -3.020610
     83          1           0       -0.203173    4.828184   -2.155946
     84          1           0        0.955215    1.247189   -1.704126
     85          1           0        1.752264    5.424229   -0.913837
     86          1           0        3.858157    4.821138    0.239418
     87          1           0        1.567913   -0.706177   -0.309851
     88          1           0        2.561770    1.788256    2.068779
     89          1           0        3.777416    1.031395    3.040510
     90          1           0        2.264879   -0.658956    3.303555
     91          1           0        1.254416   -0.048650    2.002625
     92          1           0        2.354587   -3.719001   -1.912072
     93          1           0        1.088486   -2.580017   -1.364974
     94          1           0        3.004830   -4.254705    0.383896
     95          1           0        1.260939   -4.424647    0.314712
     96          1           0        2.179619   -3.230689    2.384162
     97          1           0        0.889129   -2.418696    1.517043
     98          1           0        4.024452    0.907955   -2.532965
     99          1           0        5.080527   -0.242459   -1.749024
    100          1           0        3.698938   -1.683009   -3.128136
    101          1           0        2.194361   -0.796250   -2.668947
    102          1           0        4.710439   -2.538582    1.323151
    103          1           0        4.360919   -1.755521    2.816703
    104          1           0        5.639240    0.019341    2.304352
    105          1           0        8.938637   -1.606688    0.391107
    106          1           0        8.453262   -3.261043    0.813520
    107          1           0        7.837065   -2.541316   -0.686274
    108          1           0        6.033105    2.148383   -0.944339
    109          1           0        6.771360    2.126941    0.686416
    110          1           0        6.092409    3.608808    0.056198
 ---------------------------------------------------------------------

 SCF Done:  E(RHF) =  -2300.19459863     A.U. after   15 cycles

      1  C    Isotropic =   124.8531   Anisotropy =   149.1330

      2  C    Isotropic =   119.7728   Anisotropy =   158.5480

      3  C    Isotropic =   119.2228   Anisotropy =   154.0545

      4  C    Isotropic =   133.6481   Anisotropy =   143.2783

      5  C    Isotropic =   109.2079   Anisotropy =   127.8275

      6  C    Isotropic =   117.4754   Anisotropy =   141.6910

      7  N    Isotropic =   274.4989   Anisotropy =    82.3971

      8  C    Isotropic =   196.0220   Anisotropy =    11.8649

      9  C    Isotropic =   181.1173   Anisotropy =    44.8486

     10  C    Isotropic =   190.4305   Anisotropy =    30.2872

     11  C    Isotropic =   213.8024   Anisotropy =    19.6589

     12  C    Isotropic =   212.7589   Anisotropy =    21.4652

     13  C    Isotropic =   213.5525   Anisotropy =     8.6763

     14  N    Isotropic =   301.8543   Anisotropy =    54.6541

     15  C    Isotropic =   205.2230   Anisotropy =    34.3503

     16  C    Isotropic =   224.1876   Anisotropy =     9.0399

     17  C    Isotropic =   215.3617   Anisotropy =    19.5432

     18  C    Isotropic =   210.3638   Anisotropy =    37.8802

     19  C    Isotropic =   199.9755   Anisotropy =    40.5578

     20  C    Isotropic =   212.1516   Anisotropy =    20.8107

     21  C    Isotropic =   209.1199   Anisotropy =     9.4840

     22  C    Isotropic =    96.3136   Anisotropy =    98.3696

     23  O    Isotropic =  -134.2939   Anisotropy =   888.7784

     24  O    Isotropic =   283.5900   Anisotropy =   139.8898

     25  C    Isotropic =   197.3415   Anisotropy =    56.9697

     26  C    Isotropic =   209.9646   Anisotropy =    42.2049

     27  C    Isotropic =   206.4908   Anisotropy =    15.4415

     28  C    Isotropic =   118.1135   Anisotropy =   160.6835

     29  C    Isotropic =   128.2121   Anisotropy =   148.3927

     30  C    Isotropic =   120.2169   Anisotropy =   148.3901

     31  C    Isotropic =   127.2786   Anisotropy =   152.9733

     32  C    Isotropic =   106.6285   Anisotropy =   126.2128

     33  C    Isotropic =   114.0638   Anisotropy =   145.6264

     34  N    Isotropic =   276.3148   Anisotropy =    75.6903

     35  C    Isotropic =   200.1707   Anisotropy =    16.5452

     36  C    Isotropic =   180.0030   Anisotropy =    36.9029

     37  C    Isotropic =   183.1076   Anisotropy =    40.8987

     38  C    Isotropic =   206.8007   Anisotropy =    31.8983

     39  C    Isotropic =   213.2889   Anisotropy =    18.0138

     40  C    Isotropic =   211.9091   Anisotropy =    10.3974

     41  N    Isotropic =   235.4679   Anisotropy =    24.8765

     42  C    Isotropic =   193.7448   Anisotropy =    50.1077

     43  C    Isotropic =   219.5219   Anisotropy =     8.5038

     44  C    Isotropic =   214.9046   Anisotropy =    21.2123

     45  C    Isotropic =   207.5881   Anisotropy =    34.0703

     46  C    Isotropic =   190.7445   Anisotropy =    52.0665

     47  C    Isotropic =   210.9466   Anisotropy =    26.9517

     48  C    Isotropic =   205.7073   Anisotropy =    16.2011

     49  C    Isotropic =    97.0229   Anisotropy =    96.1352

     50  O    Isotropic =  -118.3830   Anisotropy =   854.0028

     51  O    Isotropic =   286.5877   Anisotropy =   143.2668

     52  C    Isotropic =   197.5821   Anisotropy =    57.0977

     53  C    Isotropic =   207.6203   Anisotropy =    43.1523

     54  O    Isotropic =    77.2530   Anisotropy =   403.5160

     55  H    Isotropic =    25.5192   Anisotropy =    13.0570

     56  H    Isotropic =    25.8573   Anisotropy =     6.9656

     57  H    Isotropic =    26.6497   Anisotropy =     7.9030

     58  H    Isotropic =    31.4315   Anisotropy =     8.3384

     59  H    Isotropic =    32.1533   Anisotropy =    14.0553

     60  H    Isotropic =    32.8508   Anisotropy =     9.0282

     61  H    Isotropic =    32.3160   Anisotropy =    15.5673

     62  H    Isotropic =    32.5404   Anisotropy =    13.6732

     63  H    Isotropic =    31.7849   Anisotropy =    13.7024

     64  H    Isotropic =    31.8612   Anisotropy =    14.2497

     65  H    Isotropic =    32.6047   Anisotropy =    17.8687

     66  H    Isotropic =    32.5228   Anisotropy =    10.1189

     67  H    Isotropic =    32.6158   Anisotropy =    13.3917

     68  H    Isotropic =    32.4517   Anisotropy =    15.1616

     69  H    Isotropic =    32.6983   Anisotropy =    16.6832

     70  H    Isotropic =    33.0230   Anisotropy =     8.9728

     71  H    Isotropic =    32.0454   Anisotropy =    19.6159

     72  H    Isotropic =    31.8927   Anisotropy =     7.8516

     73  H    Isotropic =    31.4081   Anisotropy =     8.9323

     74  H    Isotropic =    32.1932   Anisotropy =    15.1318

     75  H    Isotropic =    31.1743   Anisotropy =    12.9446

     76  H    Isotropic =    30.5575   Anisotropy =    12.1072

     77  H    Isotropic =    30.6927   Anisotropy =     7.5696

     78  H    Isotropic =    30.5835   Anisotropy =    11.6313

     79  H    Isotropic =    31.9255   Anisotropy =    12.3271

     80  H    Isotropic =    30.7579   Anisotropy =    14.2044

     81  H    Isotropic =    30.9217   Anisotropy =    10.9792

     82  H    Isotropic =    30.0258   Anisotropy =     7.9296

     83  H    Isotropic =    29.8622   Anisotropy =    12.6200

     84  H    Isotropic =    26.2363   Anisotropy =    13.5794

     85  H    Isotropic =    25.6745   Anisotropy =     6.5807

     86  H    Isotropic =    25.9705   Anisotropy =     7.9023

     87  H    Isotropic =    31.8822   Anisotropy =    11.9321

     88  H    Isotropic =    33.0590   Anisotropy =     8.6065

     89  H    Isotropic =    31.7345   Anisotropy =    14.1580

     90  H    Isotropic =    32.4547   Anisotropy =    14.5115

     91  H    Isotropic =    33.4509   Anisotropy =    14.9026

     92  H    Isotropic =    30.8676   Anisotropy =    13.3233

     93  H    Isotropic =    31.8168   Anisotropy =    14.7099

     94  H    Isotropic =    31.1768   Anisotropy =    13.9249

     95  H    Isotropic =    32.3401   Anisotropy =    15.6752

     96  H    Isotropic =    32.2134   Anisotropy =    14.4204

     97  H    Isotropic =    32.8322   Anisotropy =    14.7242

     98  H    Isotropic =    32.7854   Anisotropy =    10.5178

     99  H    Isotropic =    31.1987   Anisotropy =    12.7045

    100  H    Isotropic =    30.9555   Anisotropy =    14.5472

    101  H    Isotropic =    31.4933   Anisotropy =    10.5470

    102  H    Isotropic =    30.2407   Anisotropy =    11.1797

    103  H    Isotropic =    31.6997   Anisotropy =    14.2991

    104  H    Isotropic =    31.1559   Anisotropy =    13.6178

    105  H    Isotropic =    30.6577   Anisotropy =    11.5170

    106  H    Isotropic =    30.6775   Anisotropy =    12.6963

    107  H    Isotropic =    30.5983   Anisotropy =     7.3132

    108  H    Isotropic =    31.6101   Anisotropy =     9.8724

    109  H    Isotropic =    31.7811   Anisotropy =    12.4104

    110  H    Isotropic =    31.2147   Anisotropy =    15.1730

 The electronic state is 1-A.
 Alpha  occ. eigenvalues --  -20.30887 -20.28634 -20.24868 -20.22684 -19.92118
 Alpha  occ. eigenvalues --  -15.48133 -15.33835 -15.32325 -15.31200 -11.16799
 Alpha  occ. eigenvalues --  -11.15045 -11.10759 -11.09766 -11.09493 -11.09146
 Alpha  occ. eigenvalues --  -11.08871 -11.08575 -11.08530 -11.08176 -11.07532
 Alpha  occ. eigenvalues --  -11.07397 -11.06773 -11.06711 -11.06202 -11.06114
 Alpha  occ. eigenvalues --  -11.06078 -11.05937 -11.05865 -11.05763 -11.05668
 Alpha  occ. eigenvalues --  -11.05043 -11.04788 -11.04748 -11.04717 -11.04661
 Alpha  occ. eigenvalues --  -11.04579 -11.04512 -11.04387 -11.04316 -11.04263
 Alpha  occ. eigenvalues --  -11.04247 -11.03514 -11.03046 -11.02920 -11.02894
 Alpha  occ. eigenvalues --  -11.02377 -11.02187 -11.02096 -11.02091 -11.02015
 Alpha  occ. eigenvalues --  -11.01969 -11.01905 -11.01792 -11.01624  -1.38107
 Alpha  occ. eigenvalues --   -1.35978  -1.29472  -1.27927  -1.25863  -1.21809
 Alpha  occ. eigenvalues --   -1.19998  -1.19340  -1.10183  -1.10036  -1.09060
 Alpha  occ. eigenvalues --   -1.07621  -1.05813  -1.05277  -1.02682  -1.01106
 Alpha  occ. eigenvalues --   -0.99316  -0.98638  -0.98407  -0.97546  -0.97205
 Alpha  occ. eigenvalues --   -0.96181  -0.95042  -0.94961  -0.94048  -0.92561
 Alpha  occ. eigenvalues --   -0.91902  -0.91651  -0.89362  -0.89130  -0.87787
 Alpha  occ. eigenvalues --   -0.86545  -0.84622  -0.82751  -0.82262  -0.80647
 Alpha  occ. eigenvalues --   -0.80345  -0.80009  -0.78141  -0.78100  -0.77687
 Alpha  occ. eigenvalues --   -0.77062  -0.74520  -0.74129  -0.72926  -0.72426
 Alpha  occ. eigenvalues --   -0.71519  -0.70368  -0.69758  -0.68161  -0.66286
 Alpha  occ. eigenvalues --   -0.65303  -0.64919  -0.64448  -0.63727  -0.62941
 Alpha  occ. eigenvalues --   -0.62541  -0.62152  -0.61600  -0.61233  -0.61030
 Alpha  occ. eigenvalues --   -0.60953  -0.60141  -0.59036  -0.58897  -0.58612
 Alpha  occ. eigenvalues --   -0.58373  -0.58195  -0.57727  -0.57598  -0.57284
 Alpha  occ. eigenvalues --   -0.57107  -0.56734  -0.56040  -0.55689  -0.55560
 Alpha  occ. eigenvalues --   -0.55160  -0.55023  -0.54766  -0.54388  -0.54250
 Alpha  occ. eigenvalues --   -0.54196  -0.53526  -0.53207  -0.52390  -0.52085
 Alpha  occ. eigenvalues --   -0.51638  -0.51452  -0.51234  -0.50776  -0.50185
 Alpha  occ. eigenvalues --   -0.50045  -0.49856  -0.49308  -0.49027  -0.48589
 Alpha  occ. eigenvalues --   -0.48412  -0.48180  -0.47762  -0.47480  -0.46710
 Alpha  occ. eigenvalues --   -0.46458  -0.46337  -0.45960  -0.45757  -0.45251
 Alpha  occ. eigenvalues --   -0.45023  -0.44839  -0.44753  -0.44156  -0.43909
 Alpha  occ. eigenvalues --   -0.43823  -0.43301  -0.42982  -0.42773  -0.42666
 Alpha  occ. eigenvalues --   -0.41896  -0.41738  -0.41380  -0.41279  -0.40962
 Alpha  occ. eigenvalues --   -0.40228  -0.39887  -0.38839  -0.38525  -0.37828
 Alpha  occ. eigenvalues --   -0.37752  -0.37105  -0.36832  -0.35600  -0.34455
 Alpha  occ. eigenvalues --   -0.33590  -0.32422  -0.31614  -0.31227  -0.30716
 Alpha  occ. eigenvalues --   -0.27638  -0.27098  -0.26657  -0.22425  -0.20976
 Alpha  occ. eigenvalues --   -0.16079  -0.15589
 Alpha virt. eigenvalues --    0.26233   0.26705   0.27292   0.28835   0.30156
 Alpha virt. eigenvalues --    0.32628   0.45727   0.47871   0.47889   0.48880
 Alpha virt. eigenvalues --    0.49552   0.49975   0.50346   0.51236   0.51911

 Mulliken charges:
               1
     1  C   -0.074980
     2  C    0.000658
     3  C   -0.061169
     4  C   -0.088776
     5  C    0.089501
     6  C   -0.013568
     7  N   -0.286640
     8  C    0.017891
     9  C    0.128289
    10  C    0.039548
    11  C   -0.114906
    12  C   -0.105479
    13  C    0.028028
    14  N   -0.291785
    15  C   -0.015849
    16  C   -0.108223
    17  C   -0.102117
    18  C   -0.104724
    19  C   -0.020911
    20  C   -0.110634
    21  C   -0.066585
    22  C    0.319821
    23  O   -0.277469
    24  O   -0.255250
    25  C   -0.055817
    26  C   -0.078951
    27  C   -0.109824
    28  C    0.008819
    29  C   -0.081197
    30  C   -0.065323
    31  C   -0.076209
    32  C    0.081183
    33  C   -0.011481
    34  N   -0.281071
    35  C    0.005879
    36  C    0.123657
    37  C    0.041573
    38  C   -0.100820
    39  C   -0.107491
    40  C    0.039733
    41  N   -0.081003
    42  C   -0.004806
    43  C   -0.097868
    44  C   -0.099466
    45  C   -0.105561
    46  C   -0.004747
    47  C   -0.096610
    48  C   -0.058717
    49  C    0.330359
    50  O   -0.283992
    51  O   -0.257280
    52  C   -0.054814
    53  C   -0.083382
    54  O   -0.463101
    55  H    0.061438
    56  H    0.057484
    57  H    0.059294
    58  H    0.056561
    59  H    0.051360
    60  H    0.054808
    61  H    0.048995
    62  H    0.050738
    63  H    0.053834
    64  H    0.059919
    65  H    0.054786
    66  H    0.051101
    67  H    0.050523
    68  H    0.052280
    69  H    0.059809
    70  H    0.065055
    71  H    0.052153
    72  H    0.054152
    73  H    0.067456
    74  H    0.051959
    75  H    0.065493
    76  H    0.077804
    77  H    0.074753
    78  H    0.072644
    79  H    0.055670
    80  H    0.072450
    81  H    0.076492
    82  H    0.058992
    83  H    0.058951
    84  H    0.055020
    85  H    0.056678
    86  H    0.065844
    87  H    0.055688
    88  H    0.058936
    89  H    0.053905
    90  H    0.052958
    91  H    0.046677
    92  H    0.083761
    93  H    0.059587
    94  H    0.079754
    95  H    0.057981
    96  H    0.058557
    97  H    0.048048
    98  H    0.063257
    99  H    0.098383
   100  H    0.089105
   101  H    0.057623
   102  H    0.096865
   103  H    0.046977
   104  H    0.069336
   105  H    0.067785
   106  H    0.074012
   107  H    0.079591
   108  H    0.065414
   109  H    0.069699
   110  H    0.065260
 Sum of Mulliken charges =  -0.00000

 Dipole moment (field-independent basis, Debye):
    X=             -5.5988    Y=              0.2619    Z=             -0.2459  Tot=              5.6103
 Quadrupole moment (field-independent basis, Debye-Ang):
   XX=           -300.5742   YY=           -302.2620   ZZ=           -292.6608
   XY=              3.8474   XZ=              2.1242   YZ=              1.3483

 Summary of Natural Population Analysis:

                                       Natural Population
                Natural  -----------------------------------------------
    Atom  No    Charge         Core      Valence    Rydberg      Total
 -----------------------------------------------------------------------
      C    1   -0.05678      1.99992     4.05685    0.00000     6.05678
      C    2    0.01441      1.99990     3.98569    0.00000     5.98559
      C    3   -0.03274      1.99994     4.03280    0.00000     6.03274
      C    4   -0.08552      1.99993     4.08559    0.00000     6.08552
      C    5    0.11248      1.99985     3.88767    0.00000     5.88752
      C    6   -0.02490      1.99990     4.02500    0.00000     6.02490
      N    7   -0.27503      1.99998     5.27505    0.00000     7.27503
      C    8    0.01949      1.99996     3.98055    0.00000     5.98051
      C    9    0.17151      1.99996     3.82853    0.00000     5.82849
      C   10    0.07322      1.99993     3.92685    0.00000     5.92678
      C   11   -0.08519      1.99994     4.08526    0.00000     6.08519
      C   12   -0.07344      1.99996     4.07348    0.00000     6.07344
      C   13    0.05044      1.99998     3.94959    0.00000     5.94956
      N   14   -0.27965      1.99999     5.27966    0.00000     7.27965
      C   15    0.03784      1.99994     3.96223    0.00000     5.96216
      C   16   -0.07461      1.99997     4.07465    0.00000     6.07461
      C   17   -0.06851      1.99996     4.06855    0.00000     6.06851
      C   18   -0.07440      1.99995     4.07445    0.00000     6.07440
      C   19    0.03227      1.99994     3.96779    0.00000     5.96773
      C   20   -0.07386      1.99992     4.07393    0.00000     6.07386
      C   21   -0.08452      1.99994     4.08457    0.00000     6.08452
      C   22    0.40316      1.99991     3.59693    0.00000     5.59684
      O   23   -0.31168      1.99999     6.31169    0.00000     8.31168
      O   24   -0.26682      1.99999     6.26682    0.00000     8.26682
      C   25    0.03461      1.99984     3.96555    0.00000     5.96539
      C   26   -0.01631      1.99992     4.01638    0.00000     6.01631
      C   27   -0.08714      1.99995     4.08718    0.00000     6.08714
      C   28    0.02889      1.99990     3.97121    0.00000     5.97111
      C   29   -0.06794      1.99992     4.06802    0.00000     6.06794
      C   30   -0.04157      1.99994     4.04163    0.00000     6.04157
      C   31   -0.06594      1.99993     4.06600    0.00000     6.06594
      C   32    0.09990      1.99985     3.90025    0.00000     5.90010
      C   33   -0.01638      1.99990     4.01648    0.00000     6.01638
      N   34   -0.27250      1.99998     5.27251    0.00000     7.27250
      C   35   -0.00116      1.99996     4.00120    0.00000     6.00116
      C   36    0.16889      1.99996     3.83115    0.00000     5.83111
      C   37    0.07238      1.99991     3.92771    0.00000     5.92762
      C   38   -0.06574      1.99991     4.06583    0.00000     6.06574
      C   39   -0.07923      1.99996     4.07927    0.00000     6.07923
      C   40    0.05779      1.99998     3.94223    0.00000     5.94221
      N   41    0.03342      1.99999     4.96659    0.00000     6.96658
      C   42    0.04869      1.99992     3.95140    0.00000     5.95131
      C   43   -0.06435      1.99995     4.06440    0.00000     6.06435
      C   44   -0.06274      1.99994     4.06279    0.00000     6.06274
      C   45   -0.07390      1.99993     4.07397    0.00000     6.07390
      C   46    0.04613      1.99993     3.95394    0.00000     5.95387
      C   47   -0.05820      1.99991     4.05829    0.00000     6.05820
      C   48   -0.07279      1.99993     4.07286    0.00000     6.07279
      C   49    0.41454      1.99990     3.58556    0.00000     5.58546
      O   50   -0.32013      1.99998     6.32015    0.00000     8.32013
      O   51   -0.27022      1.99999     6.27022    0.00000     8.27022
      C   52    0.03549      1.99984     3.96467    0.00000     5.96451
      C   53   -0.02176      1.99992     4.02183    0.00000     6.02176
      O   54   -0.51566      2.00000     6.51566    0.00000     8.51566
      H   55    0.03586      0.00000     0.96414    0.00000     0.96414
      H   56    0.03008      0.00000     0.96992    0.00000     0.96992
      H   57    0.03502      0.00000     0.96498    0.00000     0.96498
      H   58    0.02532      0.00000     0.97468    0.00000     0.97468
      H   59    0.02918      0.00000     0.97082    0.00000     0.97082
      H   60    0.03188      0.00000     0.96812    0.00000     0.96812
      H   61    0.02792      0.00000     0.97208    0.00000     0.97208
      H   62    0.02958      0.00000     0.97042    0.00000     0.97042
      H   63    0.02676      0.00000     0.97324    0.00000     0.97324
      H   64    0.03419      0.00000     0.96581    0.00000     0.96581
      H   65    0.03485      0.00000     0.96515    0.00000     0.96515
      H   66    0.03044      0.00000     0.96956    0.00000     0.96956
      H   67    0.02970      0.00000     0.97030    0.00000     0.97030
      H   68    0.03134      0.00000     0.96866    0.00000     0.96866
      H   69    0.03877      0.00000     0.96123    0.00000     0.96123
      H   70    0.04219      0.00000     0.95781    0.00000     0.95781
      H   71    0.02640      0.00000     0.97360    0.00000     0.97360
      H   72    0.02493      0.00000     0.97507    0.00000     0.97507
      H   73    0.04223      0.00000     0.95777    0.00000     0.95777
      H   74    0.02976      0.00000     0.97024    0.00000     0.97024
      H   75    0.04259      0.00000     0.95741    0.00000     0.95741
      H   76    0.04668      0.00000     0.95332    0.00000     0.95332
      H   77    0.04326      0.00000     0.95674    0.00000     0.95674
      H   78    0.04106      0.00000     0.95894    0.00000     0.95894
      H   79    0.03023      0.00000     0.96977    0.00000     0.96977
      H   80    0.04802      0.00000     0.95198    0.00000     0.95198
      H   81    0.05209      0.00000     0.94791    0.00000     0.94791
      H   82    0.04033      0.00000     0.95967    0.00000     0.95967
      H   83    0.03967      0.00000     0.96033    0.00000     0.96033
      H   84    0.03013      0.00000     0.96987    0.00000     0.96987
      H   85    0.02953      0.00000     0.97047    0.00000     0.97047
      H   86    0.04016      0.00000     0.95984    0.00000     0.95984
      H   87    0.02318      0.00000     0.97682    0.00000     0.97682
      H   88    0.03370      0.00000     0.96630    0.00000     0.96630
      H   89    0.02959      0.00000     0.97041    0.00000     0.97041
      H   90    0.03258      0.00000     0.96742    0.00000     0.96742
      H   91    0.02613      0.00000     0.97387    0.00000     0.97387
      H   92    0.05227      0.00000     0.94773    0.00000     0.94773
      H   93    0.02868      0.00000     0.97132    0.00000     0.97132
      H   94    0.05527      0.00000     0.94473    0.00000     0.94473
      H   95    0.03633      0.00000     0.96367    0.00000     0.96367
      H   96    0.03630      0.00000     0.96370    0.00000     0.96370
      H   97    0.02588      0.00000     0.97412    0.00000     0.97412
      H   98    0.04101      0.00000     0.95899    0.00000     0.95899
      H   99    0.07033      0.00000     0.92967    0.00000     0.92967
      H  100    0.05766      0.00000     0.94234    0.00000     0.94234
      H  101    0.02720      0.00000     0.97280    0.00000     0.97280
      H  102    0.06788      0.00000     0.93212    0.00000     0.93212
      H  103    0.02312      0.00000     0.97688    0.00000     0.97688
      H  104    0.04496      0.00000     0.95504    0.00000     0.95504
      H  105    0.03656      0.00000     0.96344    0.00000     0.96344
      H  106    0.04325      0.00000     0.95675    0.00000     0.95675
      H  107    0.04774      0.00000     0.95226    0.00000     0.95226
      H  108    0.03891      0.00000     0.96109    0.00000     0.96109
      H  109    0.04538      0.00000     0.95462    0.00000     0.95462
      H  110    0.04171      0.00000     0.95829    0.00000     0.95829
 =======================================================================
   * Total *   -0.00000    107.99661   286.00339    0.00000   394.00000

 Normal termination of Gaussian 16 at Thu May 30 09:39:32 2024.
