 Gaussian 16, Revision B.01,
 Gaussian 16:  ES64L-G16RevB.01 20-Dec-2017

 ----------------------------------------------
 # nmr=giao hf/sto-3g pop=nbo geom=connectivity
 ----------------------------------------------

 -----------------
 Pleiokomenine_C_2
 -----------------
 Symbolic Z-matrix:
 Charge =  0 Multiplicity = 1

                         Standard orientation:
 ---------------------------------------------------------------------
 Center     Atomic      Atomic             Coordinates (Angstroms)
 Number     Number       Type             X           Y           Z
 ---------------------------------------------------------------------
      1          6           0       -1.829503    2.298689    0.234797
      2          6           0       -1.445849    3.403352   -0.540405
      3          6           0       -2.180704    3.716355   -1.704507
      4          6           0       -3.253870    2.920537   -2.128472
      5          6           0       -3.586086    1.799123   -1.390413
      6          6           0       -2.878580    1.508691   -0.207140
      7          7           0       -4.581923    0.821831   -1.671833
      8          6           0       -3.519507    0.305837    0.440172
      9          6           0       -4.110234   -0.335845   -0.868117
     10          6           0       -2.684696   -0.746152    1.172055
     11          6           0       -2.935160   -1.053764   -1.679350
     12          6           0       -2.237989   -2.125811   -0.842189
     13          6           0       -2.852815   -2.156487    0.560848
     14          7           0       -3.278327   -0.806456    2.506259
     15          6           0       -2.477265   -1.560331    3.442647
     16          6           0       -2.474090   -3.021009    2.960487
     17          6           0       -2.118505   -3.171431    1.469347
     18          6           0       -4.440317    0.882403    1.547920
     19          6           0       -3.712025    0.527270    2.846737
     20          6           0       -4.374762   -2.498835    0.383065
     21          6           0       -5.095795   -1.484901   -0.567360
     22          6           0       -6.478485   -1.102580   -0.063998
     23          8           0       -6.957180   -1.439144    1.011784
     24          8           0       -7.166711   -0.411810   -1.015462
     25          6           0       -8.471417    0.002494   -0.611449
     26          6           0       -4.981590    0.664933   -3.061121
     27          6           0       -0.292867    4.294398   -0.115346
     28          6           0        0.919751    3.556405    0.420060
     29          6           0        1.491277    2.502140   -0.308947
     30          6           0        1.491819    3.940379    1.653038
     31          6           0        2.589963    3.258817    2.193563
     32          6           0        3.107035    2.180584    1.501908
     33          6           0        2.564568    1.825152    0.245524
     34          7           0        4.135929    1.285317    1.901085
     35          6           0        3.401416    0.693876   -0.309886
     36          6           0        3.826166    0.094223    1.077742
     37          6           0        2.811438   -0.440497   -1.129367
     38          6           0        2.555425   -0.638899    1.757311
     39          6           0        1.897427   -1.641169    0.805369
     40          6           0        2.790785   -1.809657   -0.433780
     41          7           0        3.632075   -0.499341   -2.407713
     42          6           0        2.861826   -1.295158   -3.408597
     43          6           0        2.715598   -2.734807   -2.874882
     44          6           0        2.183671   -2.831531   -1.425939
     45          6           0        4.365168    1.404851   -1.303255
     46          6           0        3.870803    0.939083   -2.684375
     47          6           0        4.195578   -2.214210    0.132008
     48          6           0        4.855072   -1.053915    0.966908
     49          6           0        6.261180   -0.678015    0.523806
     50          8           0        6.770839    0.429227    0.636493
     51          8           0        6.952041   -1.789680    0.132767
     52          6           0        8.264397   -1.515172   -0.354076
     53          6           0        4.461869    1.179935    3.309432
     54          8           0        4.873656   -1.071959   -2.287615
     55          1           0       -1.317828    2.063764    1.163702
     56          1           0       -1.917212    4.592289   -2.294653
     57          1           0       -3.798323    3.186584   -3.027078
     58          1           0       -1.627484   -0.450017    1.216508
     59          1           0       -2.179257   -0.343246   -2.036550
     60          1           0       -3.336728   -1.517850   -2.590090
     61          1           0       -2.333113   -3.103490   -1.330660
     62          1           0       -1.164749   -1.907382   -0.793572
     63          1           0       -1.454748   -1.169979    3.509532
     64          1           0       -2.913066   -1.523918    4.447475
     65          1           0       -1.771183   -3.605877    3.564997
     66          1           0       -3.467396   -3.456182    3.130866
     67          1           0       -1.034952   -3.025017    1.368504
     68          1           0       -2.324223   -4.198105    1.143910
     69          1           0       -4.609352    1.964137    1.487994
     70          1           0       -5.423645    0.414871    1.557316
     71          1           0       -2.872157    1.203749    3.040383
     72          1           0       -4.394917    0.544144    3.701253
     73          1           0       -4.868237   -2.555597    1.358695
     74          1           0       -4.469909   -3.504822   -0.048025
     75          1           0       -5.303910   -2.032444   -1.499474
     76          1           0       -8.416864    0.631713    0.282507
     77          1           0       -9.110803   -0.868178   -0.436205
     78          1           0       -8.905220    0.593088   -1.423015
     79          1           0       -4.119967    0.535381   -3.725682
     80          1           0       -5.552859    1.537714   -3.394901
     81          1           0       -5.630752   -0.207597   -3.182398
     82          1           0        0.045786    4.902856   -0.963660
     83          1           0       -0.678211    4.991084    0.639847
     84          1           0        1.091034    2.221927   -1.277717
     85          1           0        1.072136    4.775015    2.211729
     86          1           0        3.001226    3.567561    3.147451
     87          1           0        1.795784   -0.165233   -1.450981
     88          1           0        1.787301    0.060566    2.109116
     89          1           0        2.882665   -1.163639    2.665723
     90          1           0        1.739676   -2.598018    1.317884
     91          1           0        0.902848   -1.275618    0.520587
     92          1           0        3.429151   -1.267774   -4.344838
     93          1           0        1.893043   -0.805741   -3.552245
     94          1           0        3.691465   -3.234665   -2.914723
     95          1           0        2.056129   -3.301707   -3.541970
     96          1           0        1.098396   -2.672809   -1.474624
     97          1           0        2.324322   -3.853130   -1.052751
     98          1           0        4.365072    2.499975   -1.254880
     99          1           0        5.399666    1.090424   -1.170739
    100          1           0        2.918600    1.390613   -2.980225
    101          1           0        4.618264    1.033721   -3.477254
    102          1           0        4.849276   -2.605555   -0.649800
    103          1           0        4.060373   -3.073813    0.805296
    104          1           0        5.028378   -1.454958    1.977396
    105          1           0        8.902950   -1.153806    0.457711
    106          1           0        8.685861   -2.448939   -0.736605
    107          1           0        8.231124   -0.791040   -1.174569
    108          1           0        5.234902    0.421454    3.467056
    109          1           0        4.866242    2.126335    3.684131
    110          1           0        3.589226    0.908533    3.913349
 ---------------------------------------------------------------------

 SCF Done:  E(RHF) =  -2300.19552995     A.U. after   16 cycles

      1  C    Isotropic =   126.5034   Anisotropy =   152.2823

      2  C    Isotropic =   118.3306   Anisotropy =   161.6332

      3  C    Isotropic =   118.9292   Anisotropy =   151.8990

      4  C    Isotropic =   133.5198   Anisotropy =   143.8259

      5  C    Isotropic =   108.3493   Anisotropy =   129.3626

      6  C    Isotropic =   117.8860   Anisotropy =   142.8044

      7  N    Isotropic =   272.4570   Anisotropy =    82.6488

      8  C    Isotropic =   198.4319   Anisotropy =    13.3694

      9  C    Isotropic =   180.2375   Anisotropy =    42.9740

     10  C    Isotropic =   189.5685   Anisotropy =    30.9790

     11  C    Isotropic =   212.8807   Anisotropy =    21.2580

     12  C    Isotropic =   214.7233   Anisotropy =    17.2013

     13  C    Isotropic =   211.1365   Anisotropy =     7.1954

     14  N    Isotropic =   301.2110   Anisotropy =    59.2667

     15  C    Isotropic =   202.6408   Anisotropy =    37.9390

     16  C    Isotropic =   219.6435   Anisotropy =     8.0402

     17  C    Isotropic =   214.3097   Anisotropy =    21.1877

     18  C    Isotropic =   209.5849   Anisotropy =    31.4070

     19  C    Isotropic =   200.2111   Anisotropy =    40.2424

     20  C    Isotropic =   212.3219   Anisotropy =    22.2386

     21  C    Isotropic =   208.3237   Anisotropy =    12.4421

     22  C    Isotropic =    97.3168   Anisotropy =    99.0195

     23  O    Isotropic =  -136.9805   Anisotropy =   888.5544

     24  O    Isotropic =   284.5732   Anisotropy =   138.3058

     25  C    Isotropic =   197.3549   Anisotropy =    58.1010

     26  C    Isotropic =   209.8462   Anisotropy =    41.4969

     27  C    Isotropic =   206.2493   Anisotropy =    21.0641

     28  C    Isotropic =   118.6694   Anisotropy =   162.3778

     29  C    Isotropic =   127.5882   Anisotropy =   151.9404

     30  C    Isotropic =   118.6143   Anisotropy =   151.9215

     31  C    Isotropic =   133.8696   Anisotropy =   144.5400

     32  C    Isotropic =   108.0717   Anisotropy =   131.5450

     33  C    Isotropic =   117.6941   Anisotropy =   143.3212

     34  N    Isotropic =   272.9136   Anisotropy =    84.4667

     35  C    Isotropic =   200.8584   Anisotropy =    15.5161

     36  C    Isotropic =   179.2536   Anisotropy =    39.3422

     37  C    Isotropic =   183.7268   Anisotropy =    43.4535

     38  C    Isotropic =   211.0085   Anisotropy =    25.0567

     39  C    Isotropic =   212.8164   Anisotropy =    19.2582

     40  C    Isotropic =   211.5985   Anisotropy =     9.9326

     41  N    Isotropic =   235.3233   Anisotropy =    24.1029

     42  C    Isotropic =   193.9022   Anisotropy =    49.3435

     43  C    Isotropic =   219.3699   Anisotropy =     9.2126

     44  C    Isotropic =   215.0117   Anisotropy =    20.8811

     45  C    Isotropic =   207.4215   Anisotropy =    35.1462

     46  C    Isotropic =   190.9220   Anisotropy =    51.9767

     47  C    Isotropic =   211.7820   Anisotropy =    26.6361

     48  C    Isotropic =   207.2759   Anisotropy =    18.3449

     49  C    Isotropic =    98.3641   Anisotropy =    96.9145

     50  O    Isotropic =  -132.4244   Anisotropy =   878.0209

     51  O    Isotropic =   285.7726   Anisotropy =   142.4305

     52  C    Isotropic =   197.4623   Anisotropy =    57.4877

     53  C    Isotropic =   211.0176   Anisotropy =    41.4605

     54  O    Isotropic =    76.4567   Anisotropy =   403.6974

     55  H    Isotropic =    27.1796   Anisotropy =    15.3507

     56  H    Isotropic =    25.7113   Anisotropy =     6.0991

     57  H    Isotropic =    26.4672   Anisotropy =     7.6638

     58  H    Isotropic =    32.6856   Anisotropy =    12.8931

     59  H    Isotropic =    33.2352   Anisotropy =     8.5815

     60  H    Isotropic =    32.1685   Anisotropy =    12.4626

     61  H    Isotropic =    32.3683   Anisotropy =    13.5554

     62  H    Isotropic =    32.9846   Anisotropy =    18.8371

     63  H    Isotropic =    32.8265   Anisotropy =    11.5240

     64  H    Isotropic =    31.8738   Anisotropy =    15.3784

     65  H    Isotropic =    32.5335   Anisotropy =    16.1625

     66  H    Isotropic =    31.9332   Anisotropy =    14.3780

     67  H    Isotropic =    32.7600   Anisotropy =    15.0257

     68  H    Isotropic =    32.3495   Anisotropy =    14.0016

     69  H    Isotropic =    33.0958   Anisotropy =    11.1647

     70  H    Isotropic =    32.5234   Anisotropy =    13.0946

     71  H    Isotropic =    32.5884   Anisotropy =    11.3193

     72  H    Isotropic =    32.0621   Anisotropy =    16.4006

     73  H    Isotropic =    30.3908   Anisotropy =    11.1990

     74  H    Isotropic =    32.0573   Anisotropy =    14.9483

     75  H    Isotropic =    31.2768   Anisotropy =    12.4735

     76  H    Isotropic =    30.5952   Anisotropy =     8.1424

     77  H    Isotropic =    30.5073   Anisotropy =    12.1830

     78  H    Isotropic =    30.5130   Anisotropy =    11.9596

     79  H    Isotropic =    31.8808   Anisotropy =    10.7960

     80  H    Isotropic =    30.6449   Anisotropy =    14.9489

     81  H    Isotropic =    30.8238   Anisotropy =    11.0011

     82  H    Isotropic =    30.1101   Anisotropy =    11.5181

     83  H    Isotropic =    30.1615   Anisotropy =    11.6401

     84  H    Isotropic =    27.1169   Anisotropy =    14.1278

     85  H    Isotropic =    25.6839   Anisotropy =     5.9146

     86  H    Isotropic =    26.4471   Anisotropy =     7.2965

     87  H    Isotropic =    32.1897   Anisotropy =     9.3041

     88  H    Isotropic =    33.2470   Anisotropy =     8.4701

     89  H    Isotropic =    32.1338   Anisotropy =    11.7314

     90  H    Isotropic =    32.2872   Anisotropy =    13.4126

     91  H    Isotropic =    33.1538   Anisotropy =    19.0780

     92  H    Isotropic =    30.9565   Anisotropy =    14.8903

     93  H    Isotropic =    32.2770   Anisotropy =    10.4429

     94  H    Isotropic =    31.1079   Anisotropy =    14.0639

     95  H    Isotropic =    32.3868   Anisotropy =    16.4151

     96  H    Isotropic =    32.8163   Anisotropy =    15.5493

     97  H    Isotropic =    32.1523   Anisotropy =    13.5406

     98  H    Isotropic =    32.7126   Anisotropy =    11.4442

     99  H    Isotropic =    31.3224   Anisotropy =    12.3583

    100  H    Isotropic =    31.9082   Anisotropy =    10.6314

    101  H    Isotropic =    31.0488   Anisotropy =    15.5887

    102  H    Isotropic =    29.8879   Anisotropy =    11.9692

    103  H    Isotropic =    31.7986   Anisotropy =    13.5845

    104  H    Isotropic =    31.4014   Anisotropy =    12.2866

    105  H    Isotropic =    30.5963   Anisotropy =    11.6939

    106  H    Isotropic =    30.6363   Anisotropy =    12.6164

    107  H    Isotropic =    30.5689   Anisotropy =     7.6244

    108  H    Isotropic =    31.4762   Anisotropy =    11.8757

    109  H    Isotropic =    30.7568   Anisotropy =    15.2522

    110  H    Isotropic =    31.9411   Anisotropy =    10.8083

 The electronic state is 1-A.
 Alpha  occ. eigenvalues --  -20.30237 -20.28690 -20.24319 -20.22721 -19.92400
 Alpha  occ. eigenvalues --  -15.48496 -15.33696 -15.33646 -15.30337 -11.16169
 Alpha  occ. eigenvalues --  -11.14952 -11.10319 -11.09980 -11.09597 -11.09550
 Alpha  occ. eigenvalues --  -11.09444 -11.09011 -11.08884 -11.08202 -11.08049
 Alpha  occ. eigenvalues --  -11.07149 -11.07084 -11.06816 -11.06685 -11.06564
 Alpha  occ. eigenvalues --  -11.06329 -11.06092 -11.05895 -11.05860 -11.05831
 Alpha  occ. eigenvalues --  -11.05484 -11.05470 -11.05060 -11.04879 -11.04813
 Alpha  occ. eigenvalues --  -11.04541 -11.04129 -11.04108 -11.04060 -11.03997
 Alpha  occ. eigenvalues --  -11.03984 -11.03931 -11.03899 -11.03428 -11.02471
 Alpha  occ. eigenvalues --  -11.02450 -11.02444 -11.02241 -11.02195 -11.02079
 Alpha  occ. eigenvalues --  -11.02018 -11.01910 -11.01685 -11.01669  -1.37535
 Alpha  occ. eigenvalues --   -1.35934  -1.29878  -1.27226  -1.25689  -1.21775
 Alpha  occ. eigenvalues --   -1.21099  -1.19493  -1.10819  -1.09640  -1.09074
 Alpha  occ. eigenvalues --   -1.07800  -1.06083  -1.05002  -1.03075  -1.00804
 Alpha  occ. eigenvalues --   -0.99180  -0.99040  -0.98495  -0.97688  -0.96858
 Alpha  occ. eigenvalues --   -0.96696  -0.95497  -0.94506  -0.94314  -0.92644
 Alpha  occ. eigenvalues --   -0.91872  -0.91288  -0.89766  -0.89477  -0.88130
 Alpha  occ. eigenvalues --   -0.86694  -0.85027  -0.82909  -0.81633  -0.81442
 Alpha  occ. eigenvalues --   -0.80685  -0.79688  -0.78573  -0.77779  -0.77226
 Alpha  occ. eigenvalues --   -0.77161  -0.74712  -0.74307  -0.73275  -0.72909
 Alpha  occ. eigenvalues --   -0.71818  -0.70491  -0.69488  -0.68583  -0.65500
 Alpha  occ. eigenvalues --   -0.65319  -0.64949  -0.64633  -0.63640  -0.63155
 Alpha  occ. eigenvalues --   -0.62777  -0.62333  -0.61824  -0.61619  -0.61262
 Alpha  occ. eigenvalues --   -0.60228  -0.59928  -0.59372  -0.58749  -0.58634
 Alpha  occ. eigenvalues --   -0.58362  -0.58132  -0.58073  -0.58000  -0.57515
 Alpha  occ. eigenvalues --   -0.57033  -0.56980  -0.56282  -0.55925  -0.55612
 Alpha  occ. eigenvalues --   -0.55276  -0.54882  -0.54808  -0.54553  -0.54509
 Alpha  occ. eigenvalues --   -0.54093  -0.53699  -0.53467  -0.53434  -0.52391
 Alpha  occ. eigenvalues --   -0.51922  -0.51607  -0.51156  -0.50923  -0.50601
 Alpha  occ. eigenvalues --   -0.50505  -0.49565  -0.49441  -0.49407  -0.48738
 Alpha  occ. eigenvalues --   -0.48581  -0.47979  -0.47811  -0.47531  -0.47426
 Alpha  occ. eigenvalues --   -0.46900  -0.46533  -0.46177  -0.45827  -0.45202
 Alpha  occ. eigenvalues --   -0.45118  -0.44906  -0.44578  -0.44057  -0.43979
 Alpha  occ. eigenvalues --   -0.43624  -0.43567  -0.43183  -0.42893  -0.42567
 Alpha  occ. eigenvalues --   -0.42330  -0.41700  -0.41145  -0.40880  -0.40773
 Alpha  occ. eigenvalues --   -0.40257  -0.40023  -0.39004  -0.38561  -0.38030
 Alpha  occ. eigenvalues --   -0.37634  -0.37542  -0.36131  -0.35801  -0.34102
 Alpha  occ. eigenvalues --   -0.33363  -0.32966  -0.31914  -0.31392  -0.30723
 Alpha  occ. eigenvalues --   -0.27595  -0.27514  -0.27122  -0.21373  -0.20556
 Alpha  occ. eigenvalues --   -0.16332  -0.15809
 Alpha virt. eigenvalues --    0.26501   0.27237   0.27422   0.27997   0.30909
 Alpha virt. eigenvalues --    0.32652   0.45374   0.48045   0.48326   0.48532
 Alpha virt. eigenvalues --    0.49001   0.49611   0.50607   0.51180   0.51860

 Mulliken charges:
               1
     1  C   -0.077930
     2  C   -0.000934
     3  C   -0.064232
     4  C   -0.090819
     5  C    0.090015
     6  C   -0.014828
     7  N   -0.282982
     8  C    0.015280
     9  C    0.130258
    10  C    0.040809
    11  C   -0.114593
    12  C   -0.108285
    13  C    0.041602
    14  N   -0.293966
    15  C   -0.011782
    16  C   -0.095674
    17  C   -0.100945
    18  C   -0.099319
    19  C   -0.013291
    20  C   -0.104349
    21  C   -0.063960
    22  C    0.318127
    23  O   -0.273554
    24  O   -0.256215
    25  C   -0.055454
    26  C   -0.078503
    27  C   -0.110664
    28  C   -0.000057
    29  C   -0.079453
    30  C   -0.062673
    31  C   -0.090812
    32  C    0.095563
    33  C   -0.013795
    34  N   -0.281116
    35  C    0.015318
    36  C    0.135155
    37  C    0.039623
    38  C   -0.116041
    39  C   -0.105823
    40  C    0.040084
    41  N   -0.081033
    42  C   -0.003178
    43  C   -0.097206
    44  C   -0.099671
    45  C   -0.098181
    46  C   -0.004719
    47  C   -0.098445
    48  C   -0.058555
    49  C    0.327446
    50  O   -0.275299
    51  O   -0.255785
    52  C   -0.054053
    53  C   -0.077258
    54  O   -0.461341
    55  H    0.059872
    56  H    0.055615
    57  H    0.059180
    58  H    0.040920
    59  H    0.050734
    60  H    0.049555
    61  H    0.048885
    62  H    0.045622
    63  H    0.038263
    64  H    0.061810
    65  H    0.049843
    66  H    0.056659
    67  H    0.046735
    68  H    0.051701
    69  H    0.058417
    70  H    0.065576
    71  H    0.040085
    72  H    0.062570
    73  H    0.080543
    74  H    0.048503
    75  H    0.063116
    76  H    0.074258
    77  H    0.071879
    78  H    0.076587
    79  H    0.053389
    80  H    0.072083
    81  H    0.076936
    82  H    0.060389
    83  H    0.061631
    84  H    0.055034
    85  H    0.056826
    86  H    0.060793
    87  H    0.053756
    88  H    0.053402
    89  H    0.049605
    90  H    0.053091
    91  H    0.045477
    92  H    0.084998
    93  H    0.055401
    94  H    0.081249
    95  H    0.058079
    96  H    0.046816
    97  H    0.058829
    98  H    0.068025
    99  H    0.096094
   100  H    0.056341
   101  H    0.089997
   102  H    0.102325
   103  H    0.044901
   104  H    0.062163
   105  H    0.067585
   106  H    0.074348
   107  H    0.078283
   108  H    0.072708
   109  H    0.075795
   110  H    0.054217
 Sum of Mulliken charges =  -0.00000

 Dipole moment (field-independent basis, Debye):
    X=             -2.8034    Y=             -0.5695    Z=             -1.0529  Tot=              3.0483
 Quadrupole moment (field-independent basis, Debye-Ang):
   XX=           -329.5455   YY=           -301.1531   ZZ=           -287.7638
   XY=             -3.9656   XZ=             16.4875   YZ=             -0.2581

 Summary of Natural Population Analysis:

                                       Natural Population
                Natural  -----------------------------------------------
    Atom  No    Charge         Core      Valence    Rydberg      Total
 -----------------------------------------------------------------------
      C    1   -0.06095      1.99992     4.06102    0.00000     6.06095
      C    2    0.01398      1.99990     3.98611    0.00000     5.98602
      C    3   -0.03657      1.99994     4.03662    0.00000     6.03657
      C    4   -0.08813      1.99993     4.08820    0.00000     6.08813
      C    5    0.11369      1.99985     3.88645    0.00000     5.88631
      C    6   -0.02417      1.99990     4.02427    0.00000     6.02417
      N    7   -0.27192      1.99998     5.27194    0.00000     7.27192
      C    8    0.01552      1.99996     3.98453    0.00000     5.98448
      C    9    0.17420      1.99996     3.82584    0.00000     5.82580
      C   10    0.07279      1.99994     3.92727    0.00000     5.92721
      C   11   -0.08425      1.99994     4.08432    0.00000     6.08425
      C   12   -0.07854      1.99996     4.07858    0.00000     6.07854
      C   13    0.06336      1.99998     3.93667    0.00000     5.93664
      N   14   -0.28406      1.99999     5.28407    0.00000     7.28406
      C   15    0.04299      1.99994     3.95707    0.00000     5.95701
      C   16   -0.05884      1.99996     4.05889    0.00000     6.05884
      C   17   -0.06506      1.99995     4.06511    0.00000     6.06506
      C   18   -0.06633      1.99994     4.06640    0.00000     6.06633
      C   19    0.04056      1.99995     3.95949    0.00000     5.95944
      C   20   -0.06665      1.99992     4.06673    0.00000     6.06665
      C   21   -0.08003      1.99994     4.08009    0.00000     6.08003
      C   22    0.40011      1.99991     3.59998    0.00000     5.59989
      O   23   -0.30746      1.99999     6.30747    0.00000     8.30746
      O   24   -0.26788      1.99999     6.26789    0.00000     8.26788
      C   25    0.03503      1.99984     3.96513    0.00000     5.96497
      C   26   -0.01621      1.99992     4.01629    0.00000     6.01621
      C   27   -0.08756      1.99995     4.08761    0.00000     6.08756
      C   28    0.01427      1.99991     3.98583    0.00000     5.98573
      C   29   -0.06339      1.99992     4.06347    0.00000     6.06339
      C   30   -0.03437      1.99994     4.03443    0.00000     6.03437
      C   31   -0.08933      1.99993     4.08940    0.00000     6.08933
      C   32    0.11987      1.99985     3.88028    0.00000     5.88013
      C   33   -0.02213      1.99990     4.02224    0.00000     6.02213
      N   34   -0.27134      1.99998     5.27136    0.00000     7.27134
      C   35    0.01117      1.99996     3.98887    0.00000     5.98883
      C   36    0.17920      1.99996     3.82084    0.00000     5.82080
      C   37    0.06882      1.99991     3.93127    0.00000     5.93118
      C   38   -0.08440      1.99993     4.08447    0.00000     6.08440
      C   39   -0.07491      1.99996     4.07496    0.00000     6.07491
      C   40    0.05900      1.99998     3.94102    0.00000     5.94100
      N   41    0.03342      1.99999     4.96660    0.00000     6.96658
      C   42    0.05015      1.99992     3.94994    0.00000     5.94985
      C   43   -0.06344      1.99995     4.06349    0.00000     6.06344
      C   44   -0.06297      1.99994     4.06303    0.00000     6.06297
      C   45   -0.06741      1.99993     4.06748    0.00000     6.06741
      C   46    0.04604      1.99993     3.95402    0.00000     5.95396
      C   47   -0.06044      1.99991     4.06053    0.00000     6.06044
      C   48   -0.07402      1.99994     4.07408    0.00000     6.07402
      C   49    0.40962      1.99991     3.59047    0.00000     5.59038
      O   50   -0.31071      1.99999     6.31072    0.00000     8.31071
      O   51   -0.26812      1.99999     6.26813    0.00000     8.26812
      C   52    0.03625      1.99984     3.96391    0.00000     5.96375
      C   53   -0.01537      1.99993     4.01544    0.00000     6.01537
      O   54   -0.51400      2.00000     6.51401    0.00000     8.51400
      H   55    0.03461      0.00000     0.96539    0.00000     0.96539
      H   56    0.02855      0.00000     0.97145    0.00000     0.97145
      H   57    0.03510      0.00000     0.96490    0.00000     0.96490
      H   58    0.01062      0.00000     0.98938    0.00000     0.98938
      H   59    0.02812      0.00000     0.97188    0.00000     0.97188
      H   60    0.02749      0.00000     0.97251    0.00000     0.97251
      H   61    0.02861      0.00000     0.97139    0.00000     0.97139
      H   62    0.02546      0.00000     0.97454    0.00000     0.97454
      H   63    0.01065      0.00000     0.98935    0.00000     0.98935
      H   64    0.03575      0.00000     0.96425    0.00000     0.96425
      H   65    0.02856      0.00000     0.97144    0.00000     0.97144
      H   66    0.03456      0.00000     0.96544    0.00000     0.96544
      H   67    0.02518      0.00000     0.97482    0.00000     0.97482
      H   68    0.03008      0.00000     0.96992    0.00000     0.96992
      H   69    0.03635      0.00000     0.96365    0.00000     0.96365
      H   70    0.04111      0.00000     0.95889    0.00000     0.95889
      H   71    0.01233      0.00000     0.98767    0.00000     0.98767
      H   72    0.03616      0.00000     0.96384    0.00000     0.96384
      H   73    0.05386      0.00000     0.94614    0.00000     0.94614
      H   74    0.02551      0.00000     0.97449    0.00000     0.97449
      H   75    0.03999      0.00000     0.96001    0.00000     0.96001
      H   76    0.04281      0.00000     0.95719    0.00000     0.95719
      H   77    0.04036      0.00000     0.95964    0.00000     0.95964
      H   78    0.04557      0.00000     0.95443    0.00000     0.95443
      H   79    0.02813      0.00000     0.97187    0.00000     0.97187
      H   80    0.04772      0.00000     0.95228    0.00000     0.95228
      H   81    0.05256      0.00000     0.94744    0.00000     0.94744
      H   82    0.04160      0.00000     0.95840    0.00000     0.95840
      H   83    0.04274      0.00000     0.95726    0.00000     0.95726
      H   84    0.03032      0.00000     0.96968    0.00000     0.96968
      H   85    0.02957      0.00000     0.97043    0.00000     0.97043
      H   86    0.03673      0.00000     0.96327    0.00000     0.96327
      H   87    0.02166      0.00000     0.97834    0.00000     0.97834
      H   88    0.02987      0.00000     0.97013    0.00000     0.97013
      H   89    0.02686      0.00000     0.97314    0.00000     0.97314
      H   90    0.03224      0.00000     0.96776    0.00000     0.96776
      H   91    0.02462      0.00000     0.97538    0.00000     0.97538
      H   92    0.05338      0.00000     0.94662    0.00000     0.94662
      H   93    0.02484      0.00000     0.97516    0.00000     0.97516
      H   94    0.05650      0.00000     0.94350    0.00000     0.94350
      H   95    0.03626      0.00000     0.96374    0.00000     0.96374
      H   96    0.02458      0.00000     0.97542    0.00000     0.97542
      H   97    0.03651      0.00000     0.96349    0.00000     0.96349
      H   98    0.04498      0.00000     0.95502    0.00000     0.95502
      H   99    0.06837      0.00000     0.93163    0.00000     0.93163
      H  100    0.02598      0.00000     0.97402    0.00000     0.97402
      H  101    0.05849      0.00000     0.94151    0.00000     0.94151
      H  102    0.07300      0.00000     0.92700    0.00000     0.92700
      H  103    0.02141      0.00000     0.97859    0.00000     0.97859
      H  104    0.03905      0.00000     0.96095    0.00000     0.96095
      H  105    0.03629      0.00000     0.96371    0.00000     0.96371
      H  106    0.04355      0.00000     0.95645    0.00000     0.95645
      H  107    0.04660      0.00000     0.95340    0.00000     0.95340
      H  108    0.04884      0.00000     0.95116    0.00000     0.95116
      H  109    0.05149      0.00000     0.94851    0.00000     0.94851
      H  110    0.02879      0.00000     0.97121    0.00000     0.97121
 =======================================================================
   * Total *   -0.00000    107.99663   286.00337    0.00000   394.00000

 Normal termination of Gaussian 16 at Thu May 30 09:29:38 2024.
