 Gaussian 16, Revision B.01,
 Gaussian 16:  ES64L-G16RevB.01 20-Dec-2017

 ----------------------------------------------
 # nmr=giao hf/sto-3g pop=nbo geom=connectivity
 ----------------------------------------------

 -----------------
 Pleiokomenine_C_2
 -----------------
 Symbolic Z-matrix:
 Charge =  0 Multiplicity = 1

                         Standard orientation:
 ---------------------------------------------------------------------
 Center     Atomic      Atomic             Coordinates (Angstroms)
 Number     Number       Type             X           Y           Z
 ---------------------------------------------------------------------
      1          6           0       -1.810768   -2.354162   -0.347591
      2          6           0       -1.212050   -3.141529   -1.343001
      3          6           0       -1.617706   -2.991871   -2.686292
      4          6           0       -2.594913   -2.057012   -3.051363
      5          6           0       -3.169848   -1.272671   -2.068437
      6          6           0       -2.759507   -1.418820   -0.727078
      7          7           0       -4.172099   -0.282091   -2.212103
      8          6           0       -3.441442   -0.347604    0.091030
      9          6           0       -4.697609   -0.153648   -0.833313
     10          6           0       -3.913167   -0.610457    1.522258
     11          6           0       -5.720241   -1.352378   -0.581979
     12          6           0       -6.174512   -1.412275    0.877265
     13          6           0       -5.427353   -0.347561    1.688986
     14          7           0       -3.233773    0.416646    2.314230
     15          6           0       -3.345794    0.193110    3.736447
     16          6           0       -4.831242    0.367374    4.096443
     17          6           0       -5.777897   -0.445988    3.193447
     18          6           0       -2.387186    0.779782    0.264208
     19          6           0       -1.936458    0.630921    1.719411
     20          6           0       -5.803974    1.045318    1.070513
     21          6           0       -5.511323    1.104012   -0.466240
     22          6           0       -4.959213    2.450501   -0.915018
     23          8           0       -4.125813    2.642195   -1.788352
     24          8           0       -5.614862    3.460314   -0.264438
     25          6           0       -5.181692    4.770453   -0.632930
     26          6           0       -5.046618   -0.335314   -3.366778
     27          6           0       -0.103204   -4.111668   -0.983486
     28          6           0        1.082343   -3.478015   -0.277638
     29          6           0        1.575119   -2.225279   -0.675399
     30          6           0        1.703838   -4.158474    0.793301
     31          6           0        2.787738   -3.601251    1.485776
     32          6           0        3.255543   -2.360146    1.099678
     33          6           0        2.628527   -1.674816    0.035099
     34          7           0        4.352132   -1.625024    1.623683
     35          6           0        3.239002   -0.292772   -0.041003
     36          6           0        4.652321   -0.696510    0.508981
     37          6           0        3.455210    0.447460   -1.348686
     38          6           0        5.441715   -1.540795   -0.618119
     39          6           0        5.470507   -0.810796   -1.964317
     40          6           0        4.922590    0.612284   -1.770804
     41          7           0        2.791226    1.804272   -1.172849
     42          6           0        2.611493    2.404459   -2.527833
     43          6           0        4.006607    2.636956   -3.143091
     44          6           0        4.941011    1.405082   -3.100734
     45          6           0        2.209131    0.596492    0.718095
     46          6           0        1.577814    1.451697   -0.395189
     47          6           0        5.806353    1.233007   -0.634838
     48          6           0        5.590188    0.509139    0.746347
     49          6           0        5.236195    1.439339    1.897355
     50          8           0        4.566744    1.137592    2.876841
     51          8           0        5.910773    2.621501    1.781074
     52          6           0        5.583567    3.577008    2.788185
     53          6           0        5.396557   -2.339522    2.329832
     54          8           0        3.485437    2.706599   -0.404235
     55          1           0       -1.495173   -2.435765    0.688640
     56          1           0       -1.158239   -3.596834   -3.465239
     57          1           0       -2.879533   -1.953714   -4.092045
     58          1           0       -3.637658   -1.621633    1.851579
     59          1           0       -5.294203   -2.325342   -0.856768
     60          1           0       -6.601942   -1.238809   -1.226666
     61          1           0       -7.258535   -1.254777    0.938071
     62          1           0       -5.984580   -2.416059    1.277414
     63          1           0       -2.987296   -0.802552    4.023056
     64          1           0       -2.760548    0.931453    4.295878
     65          1           0       -4.991374    0.084993    5.143365
     66          1           0       -5.096561    1.429686    4.016730
     67          1           0       -5.715352   -1.496489    3.507547
     68          1           0       -6.813500   -0.131040    3.368326
     69          1           0       -1.533293    0.718326   -0.419115
     70          1           0       -2.820280    1.774598    0.148249
     71          1           0       -1.260771   -0.219717    1.858639
     72          1           0       -1.451195    1.543163    2.078752
     73          1           0       -5.279548    1.850192    1.598113
     74          1           0       -6.874072    1.236025    1.228323
     75          1           0       -6.478138    1.048636   -0.989295
     76          1           0       -4.114211    4.895439   -0.425393
     77          1           0       -5.737772    5.492807   -0.029057
     78          1           0       -5.398361    4.961495   -1.688471
     79          1           0       -5.553841   -1.302564   -3.451363
     80          1           0       -4.481511   -0.154886   -4.287403
     81          1           0       -5.810785    0.445957   -3.305155
     82          1           0       -0.544951   -4.893507   -0.352324
     83          1           0        0.274106   -4.612205   -1.884016
     84          1           0        1.104645   -1.674659   -1.483720
     85          1           0        1.334417   -5.133592    1.105294
     86          1           0        3.238810   -4.142618    2.309084
     87          1           0        2.885453   -0.051944   -2.146588
     88          1           0        5.027702   -2.544254   -0.775471
     89          1           0        6.472471   -1.720308   -0.281898
     90          1           0        6.493515   -0.794157   -2.359715
     91          1           0        4.866392   -1.363922   -2.694996
     92          1           0        2.068486    3.345607   -2.391981
     93          1           0        2.005438    1.713497   -3.122878
     94          1           0        4.501611    3.459568   -2.612256
     95          1           0        3.892162    2.969966   -4.181069
     96          1           0        4.624269    0.736521   -3.912930
     97          1           0        5.964471    1.714872   -3.344143
     98          1           0        1.427100    0.052544    1.260641
     99          1           0        2.687371    1.252663    1.444233
    100          1           0        0.907869    0.886635   -1.050712
    101          1           0        1.101678    2.367594   -0.034199
    102          1           0        5.687079    2.316386   -0.575421
    103          1           0        6.863119    1.108210   -0.914268
    104          1           0        6.573427    0.120865    1.053610
    105          1           0        6.088116    4.515312    2.541616
    106          1           0        4.504913    3.762569    2.812542
    107          1           0        5.941736    3.237309    3.764750
    108          1           0        6.194344   -1.652960    2.629489
    109          1           0        5.004321   -2.788678    3.248532
    110          1           0        5.839657   -3.130477    1.715228
 ---------------------------------------------------------------------

 SCF Done:  E(RHF) =  -2300.19521765     A.U. after   16 cycles

      1  C    Isotropic =   125.6000   Anisotropy =   154.0552

      2  C    Isotropic =   118.7959   Anisotropy =   162.4650

      3  C    Isotropic =   118.8064   Anisotropy =   152.0870

      4  C    Isotropic =   134.4206   Anisotropy =   143.4873

      5  C    Isotropic =   108.7573   Anisotropy =   130.1844

      6  C    Isotropic =   118.1342   Anisotropy =   142.8815

      7  N    Isotropic =   275.2309   Anisotropy =    86.5766

      8  C    Isotropic =   198.1408   Anisotropy =    11.0116

      9  C    Isotropic =   180.3446   Anisotropy =    41.9000

     10  C    Isotropic =   189.7107   Anisotropy =    31.8437

     11  C    Isotropic =   213.2540   Anisotropy =    21.2127

     12  C    Isotropic =   214.7168   Anisotropy =    18.8261

     13  C    Isotropic =   210.9835   Anisotropy =     8.6373

     14  N    Isotropic =   301.3047   Anisotropy =    58.3269

     15  C    Isotropic =   202.7244   Anisotropy =    39.8599

     16  C    Isotropic =   219.5525   Anisotropy =    10.6350

     17  C    Isotropic =   214.0622   Anisotropy =    23.2490

     18  C    Isotropic =   208.7068   Anisotropy =    29.2490

     19  C    Isotropic =   200.6047   Anisotropy =    43.2584

     20  C    Isotropic =   211.6618   Anisotropy =    23.3771

     21  C    Isotropic =   207.9004   Anisotropy =    15.6459

     22  C    Isotropic =    98.7900   Anisotropy =    97.2031

     23  O    Isotropic =  -143.3773   Anisotropy =   894.3624

     24  O    Isotropic =   284.9697   Anisotropy =   146.0921

     25  C    Isotropic =   197.5432   Anisotropy =    56.5460

     26  C    Isotropic =   210.9540   Anisotropy =    41.7633

     27  C    Isotropic =   206.2173   Anisotropy =    20.4759

     28  C    Isotropic =   118.2135   Anisotropy =   161.1055

     29  C    Isotropic =   127.7412   Anisotropy =   152.6389

     30  C    Isotropic =   118.8191   Anisotropy =   152.1585

     31  C    Isotropic =   134.0449   Anisotropy =   143.5895

     32  C    Isotropic =   108.5915   Anisotropy =   130.2728

     33  C    Isotropic =   117.7024   Anisotropy =   142.9309

     34  N    Isotropic =   273.3769   Anisotropy =    85.5403

     35  C    Isotropic =   200.8962   Anisotropy =    13.5033

     36  C    Isotropic =   179.3589   Anisotropy =    39.6275

     37  C    Isotropic =   184.0325   Anisotropy =    42.6386

     38  C    Isotropic =   211.0999   Anisotropy =    23.8405

     39  C    Isotropic =   212.9042   Anisotropy =    19.7656

     40  C    Isotropic =   211.6243   Anisotropy =    11.6219

     41  N    Isotropic =   235.4640   Anisotropy =    24.5290

     42  C    Isotropic =   193.9587   Anisotropy =    49.8656

     43  C    Isotropic =   219.3874   Anisotropy =    11.2734

     44  C    Isotropic =   214.8854   Anisotropy =    22.4073

     45  C    Isotropic =   207.2669   Anisotropy =    35.3545

     46  C    Isotropic =   191.3141   Anisotropy =    55.8248

     47  C    Isotropic =   211.7883   Anisotropy =    25.1851

     48  C    Isotropic =   207.3137   Anisotropy =    16.4903

     49  C    Isotropic =    98.2969   Anisotropy =    96.3282

     50  O    Isotropic =  -131.9916   Anisotropy =   878.5741

     51  O    Isotropic =   285.9837   Anisotropy =   142.7497

     52  C    Isotropic =   197.5284   Anisotropy =    56.5061

     53  C    Isotropic =   211.1362   Anisotropy =    42.1683

     54  O    Isotropic =    74.6412   Anisotropy =   406.6995

     55  H    Isotropic =    26.8183   Anisotropy =    14.5154

     56  H    Isotropic =    25.7510   Anisotropy =     5.7365

     57  H    Isotropic =    26.5648   Anisotropy =     7.0476

     58  H    Isotropic =    32.3850   Anisotropy =     7.5857

     59  H    Isotropic =    33.0257   Anisotropy =     8.3857

     60  H    Isotropic =    32.2356   Anisotropy =    13.7408

     61  H    Isotropic =    32.3018   Anisotropy =    15.9136

     62  H    Isotropic =    32.7496   Anisotropy =    13.1609

     63  H    Isotropic =    32.6971   Anisotropy =    11.3411

     64  H    Isotropic =    31.9358   Anisotropy =    13.8605

     65  H    Isotropic =    32.5056   Anisotropy =    17.7542

     66  H    Isotropic =    32.0179   Anisotropy =    12.4629

     67  H    Isotropic =    32.6677   Anisotropy =    12.7639

     68  H    Isotropic =    32.2916   Anisotropy =    15.4703

     69  H    Isotropic =    33.2859   Anisotropy =    15.3932

     70  H    Isotropic =    32.5877   Anisotropy =    10.9026

     71  H    Isotropic =    32.8642   Anisotropy =    15.1661

     72  H    Isotropic =    32.3276   Anisotropy =    13.5856

     73  H    Isotropic =    31.0022   Anisotropy =     8.1414

     74  H    Isotropic =    31.5779   Anisotropy =    15.1291

     75  H    Isotropic =    31.4666   Anisotropy =    12.7375

     76  H    Isotropic =    30.6124   Anisotropy =     7.8032

     77  H    Isotropic =    30.5619   Anisotropy =    12.7066

     78  H    Isotropic =    30.5690   Anisotropy =    10.8399

     79  H    Isotropic =    31.9224   Anisotropy =    12.3045

     80  H    Isotropic =    30.8453   Anisotropy =    14.2562

     81  H    Isotropic =    31.6703   Anisotropy =    11.6681

     82  H    Isotropic =    30.0957   Anisotropy =    11.2162

     83  H    Isotropic =    30.2704   Anisotropy =    11.2140

     84  H    Isotropic =    27.4049   Anisotropy =    16.1265

     85  H    Isotropic =    25.7120   Anisotropy =     6.1352

     86  H    Isotropic =    26.4922   Anisotropy =     7.2247

     87  H    Isotropic =    32.1218   Anisotropy =     7.0035

     88  H    Isotropic =    33.1643   Anisotropy =     8.4874

     89  H    Isotropic =    32.1561   Anisotropy =    13.6647

     90  H    Isotropic =    32.2771   Anisotropy =    15.9772

     91  H    Isotropic =    33.0243   Anisotropy =    11.6861

     92  H    Isotropic =    31.0220   Anisotropy =    13.2348

     93  H    Isotropic =    32.2761   Anisotropy =    10.5968

     94  H    Isotropic =    31.1590   Anisotropy =    13.0847

     95  H    Isotropic =    32.3865   Anisotropy =    17.4529

     96  H    Isotropic =    32.7640   Anisotropy =    12.3433

     97  H    Isotropic =    32.1697   Anisotropy =    15.5688

     98  H    Isotropic =    33.1075   Anisotropy =    13.2110

     99  H    Isotropic =    31.5082   Anisotropy =    10.8057

    100  H    Isotropic =    32.3410   Anisotropy =    16.4182

    101  H    Isotropic =    31.3492   Anisotropy =    13.3047

    102  H    Isotropic =    29.9267   Anisotropy =    10.7727

    103  H    Isotropic =    31.8292   Anisotropy =    14.9552

    104  H    Isotropic =    31.4400   Anisotropy =    13.0670

    105  H    Isotropic =    30.6716   Anisotropy =    12.6278

    106  H    Isotropic =    30.6258   Anisotropy =     7.1499

    107  H    Isotropic =    30.6329   Anisotropy =    11.4045

    108  H    Isotropic =    31.5190   Anisotropy =    11.9296

    109  H    Isotropic =    30.7969   Anisotropy =    14.5509

    110  H    Isotropic =    31.9654   Anisotropy =    12.2167

 The electronic state is 1-A.
 Alpha  occ. eigenvalues --  -20.29851 -20.28475 -20.24388 -20.22472 -19.92017
 Alpha  occ. eigenvalues --  -15.48039 -15.33412 -15.33366 -15.30104 -11.15910
 Alpha  occ. eigenvalues --  -11.14717 -11.10217 -11.09482 -11.09267 -11.09141
 Alpha  occ. eigenvalues --  -11.08999 -11.08705 -11.08615 -11.08207 -11.07985
 Alpha  occ. eigenvalues --  -11.06877 -11.06780 -11.06609 -11.06344 -11.06198
 Alpha  occ. eigenvalues --  -11.06158 -11.05787 -11.05782 -11.05599 -11.05523
 Alpha  occ. eigenvalues --  -11.05203 -11.05053 -11.04664 -11.04553 -11.04541
 Alpha  occ. eigenvalues --  -11.04094 -11.04006 -11.03870 -11.03761 -11.03754
 Alpha  occ. eigenvalues --  -11.03640 -11.03609 -11.03569 -11.03094 -11.02216
 Alpha  occ. eigenvalues --  -11.02069 -11.02049 -11.01957 -11.01885 -11.01790
 Alpha  occ. eigenvalues --  -11.01785 -11.01596 -11.01412 -11.01289  -1.37307
 Alpha  occ. eigenvalues --   -1.35713  -1.29419  -1.27030  -1.25461  -1.21549
 Alpha  occ. eigenvalues --   -1.20790  -1.19320  -1.10440  -1.09398  -1.08812
 Alpha  occ. eigenvalues --   -1.07520  -1.05703  -1.04726  -1.02685  -1.00568
 Alpha  occ. eigenvalues --   -0.98993  -0.98664  -0.98151  -0.97397  -0.96529
 Alpha  occ. eigenvalues --   -0.96444  -0.95085  -0.94222  -0.94095  -0.92405
 Alpha  occ. eigenvalues --   -0.91746  -0.90533  -0.89582  -0.89294  -0.87849
 Alpha  occ. eigenvalues --   -0.86395  -0.84814  -0.82657  -0.81474  -0.81129
 Alpha  occ. eigenvalues --   -0.80335  -0.79467  -0.78168  -0.77404  -0.76942
 Alpha  occ. eigenvalues --   -0.76838  -0.74355  -0.74028  -0.72981  -0.72569
 Alpha  occ. eigenvalues --   -0.71608  -0.70258  -0.69324  -0.68279  -0.65013
 Alpha  occ. eigenvalues --   -0.64859  -0.64631  -0.64359  -0.63383  -0.62859
 Alpha  occ. eigenvalues --   -0.62606  -0.62439  -0.61447  -0.61273  -0.60935
 Alpha  occ. eigenvalues --   -0.60047  -0.59779  -0.59057  -0.58484  -0.58377
 Alpha  occ. eigenvalues --   -0.58056  -0.57857  -0.57729  -0.57621  -0.57193
 Alpha  occ. eigenvalues --   -0.56735  -0.56629  -0.55975  -0.55560  -0.55245
 Alpha  occ. eigenvalues --   -0.55069  -0.54770  -0.54480  -0.54466  -0.54216
 Alpha  occ. eigenvalues --   -0.53997  -0.53464  -0.53214  -0.52979  -0.52340
 Alpha  occ. eigenvalues --   -0.51516  -0.50948  -0.50816  -0.50778  -0.50254
 Alpha  occ. eigenvalues --   -0.50200  -0.49607  -0.49149  -0.48914  -0.48691
 Alpha  occ. eigenvalues --   -0.48254  -0.48149  -0.47511  -0.47240  -0.46955
 Alpha  occ. eigenvalues --   -0.46738  -0.45950  -0.45869  -0.45406  -0.45047
 Alpha  occ. eigenvalues --   -0.44753  -0.44705  -0.44461  -0.44006  -0.43684
 Alpha  occ. eigenvalues --   -0.43272  -0.42916  -0.42673  -0.42578  -0.42368
 Alpha  occ. eigenvalues --   -0.42158  -0.41544  -0.40926  -0.40835  -0.40338
 Alpha  occ. eigenvalues --   -0.40059  -0.39878  -0.38669  -0.38174  -0.37924
 Alpha  occ. eigenvalues --   -0.37306  -0.37230  -0.35911  -0.35500  -0.33857
 Alpha  occ. eigenvalues --   -0.33109  -0.32785  -0.31411  -0.31173  -0.30490
 Alpha  occ. eigenvalues --   -0.27407  -0.27283  -0.26885  -0.20867  -0.20126
 Alpha  occ. eigenvalues --   -0.15964  -0.15442
 Alpha virt. eigenvalues --    0.26733   0.27486   0.27723   0.28382   0.31384
 Alpha virt. eigenvalues --    0.32879   0.45700   0.48483   0.48676   0.49097
 Alpha virt. eigenvalues --    0.49427   0.50010   0.50128   0.51557   0.52255

 Mulliken charges:
               1
     1  C   -0.077096
     2  C   -0.002114
     3  C   -0.064379
     4  C   -0.092742
     5  C    0.095323
     6  C   -0.015434
     7  N   -0.283432
     8  C    0.016519
     9  C    0.131852
    10  C    0.039861
    11  C   -0.115128
    12  C   -0.108085
    13  C    0.041223
    14  N   -0.296030
    15  C   -0.012497
    16  C   -0.095437
    17  C   -0.100438
    18  C   -0.094540
    19  C   -0.015862
    20  C   -0.099466
    21  C   -0.063004
    22  C    0.313988
    23  O   -0.266296
    24  O   -0.261260
    25  C   -0.057052
    26  C   -0.076110
    27  C   -0.110434
    28  C   -0.000089
    29  C   -0.079844
    30  C   -0.063308
    31  C   -0.090824
    32  C    0.095029
    33  C   -0.013935
    34  N   -0.281477
    35  C    0.015318
    36  C    0.134942
    37  C    0.039575
    38  C   -0.115943
    39  C   -0.105408
    40  C    0.040117
    41  N   -0.081338
    42  C   -0.003333
    43  C   -0.097267
    44  C   -0.099167
    45  C   -0.097984
    46  C   -0.005249
    47  C   -0.098434
    48  C   -0.058434
    49  C    0.327589
    50  O   -0.275963
    51  O   -0.255730
    52  C   -0.053997
    53  C   -0.077078
    54  O   -0.461585
    55  H    0.059826
    56  H    0.054978
    57  H    0.057969
    58  H    0.043422
    59  H    0.053492
    60  H    0.048501
    61  H    0.048633
    62  H    0.049508
    63  H    0.040355
    64  H    0.061811
    65  H    0.050317
    66  H    0.054667
    67  H    0.047326
    68  H    0.051812
    69  H    0.056596
    70  H    0.062195
    71  H    0.041997
    72  H    0.061399
    73  H    0.072269
    74  H    0.053450
    75  H    0.062687
    76  H    0.073107
    77  H    0.076358
    78  H    0.072056
    79  H    0.055598
    80  H    0.074450
    81  H    0.070018
    82  H    0.059737
    83  H    0.059238
    84  H    0.057663
    85  H    0.055510
    86  H    0.059880
    87  H    0.054802
    88  H    0.054360
    89  H    0.049169
    90  H    0.052982
    91  H    0.047001
    92  H    0.085565
    93  H    0.057194
    94  H    0.080484
    95  H    0.058095
    96  H    0.046869
    97  H    0.058126
    98  H    0.066730
    99  H    0.095186
   100  H    0.058926
   101  H    0.089858
   102  H    0.102069
   103  H    0.044567
   104  H    0.061704
   105  H    0.074166
   106  H    0.078173
   107  H    0.067163
   108  H    0.072274
   109  H    0.075031
   110  H    0.054565
 Sum of Mulliken charges =  -0.00000

 Dipole moment (field-independent basis, Debye):
    X=             -1.6988    Y=             -2.1896    Z=             -1.9511  Tot=              3.3893
 Quadrupole moment (field-independent basis, Debye-Ang):
   XX=           -282.0019   YY=           -299.2985   ZZ=           -295.3676
   XY=            -10.4680   XZ=             -5.4184   YZ=             -1.6398

 Summary of Natural Population Analysis:

                                       Natural Population
                Natural  -----------------------------------------------
    Atom  No    Charge         Core      Valence    Rydberg      Total
 -----------------------------------------------------------------------
      C    1   -0.05914      1.99992     4.05922    0.00000     6.05914
      C    2    0.01130      1.99991     3.98880    0.00000     5.98870
      C    3   -0.03588      1.99994     4.03593    0.00000     6.03588
      C    4   -0.09128      1.99993     4.09135    0.00000     6.09128
      C    5    0.11971      1.99986     3.88043    0.00000     5.88029
      C    6   -0.02521      1.99990     4.02531    0.00000     6.02521
      N    7   -0.27259      1.99998     5.27261    0.00000     7.27259
      C    8    0.01697      1.99996     3.98307    0.00000     5.98303
      C    9    0.17388      1.99996     3.82616    0.00000     5.82612
      C   10    0.07200      1.99994     3.92806    0.00000     5.92800
      C   11   -0.08487      1.99994     4.08494    0.00000     6.08487
      C   12   -0.07828      1.99996     4.07831    0.00000     6.07828
      C   13    0.06265      1.99998     3.93737    0.00000     5.93735
      N   14   -0.28596      1.99999     5.28597    0.00000     7.28596
      C   15    0.04204      1.99994     3.95802    0.00000     5.95796
      C   16   -0.05849      1.99996     4.05854    0.00000     6.05849
      C   17   -0.06450      1.99995     4.06455    0.00000     6.06450
      C   18   -0.06126      1.99994     4.06132    0.00000     6.06126
      C   19    0.03776      1.99995     3.96228    0.00000     5.96224
      C   20   -0.06127      1.99992     4.06135    0.00000     6.06127
      C   21   -0.07853      1.99994     4.07859    0.00000     6.07853
      C   22    0.39561      1.99990     3.60449    0.00000     5.60439
      O   23   -0.29970      1.99999     6.29971    0.00000     8.29970
      O   24   -0.27344      1.99999     6.27345    0.00000     8.27344
      C   25    0.03352      1.99984     3.96664    0.00000     5.96648
      C   26   -0.01377      1.99993     4.01384    0.00000     6.01377
      C   27   -0.08706      1.99995     4.08710    0.00000     6.08706
      C   28    0.01489      1.99990     3.98521    0.00000     5.98511
      C   29   -0.06401      1.99992     4.06409    0.00000     6.06401
      C   30   -0.03526      1.99994     4.03531    0.00000     6.03526
      C   31   -0.08918      1.99993     4.08925    0.00000     6.08918
      C   32    0.11896      1.99985     3.88119    0.00000     5.88104
      C   33   -0.02232      1.99990     4.02243    0.00000     6.02232
      N   34   -0.27150      1.99998     5.27152    0.00000     7.27150
      C   35    0.01139      1.99996     3.98865    0.00000     5.98861
      C   36    0.17875      1.99996     3.82129    0.00000     5.82125
      C   37    0.06873      1.99991     3.93136    0.00000     5.93127
      C   38   -0.08443      1.99993     4.08450    0.00000     6.08443
      C   39   -0.07456      1.99996     4.07460    0.00000     6.07456
      C   40    0.05894      1.99998     3.94108    0.00000     5.94106
      N   41    0.03302      1.99999     4.96699    0.00000     6.96698
      C   42    0.04990      1.99992     3.95018    0.00000     5.95010
      C   43   -0.06346      1.99995     4.06351    0.00000     6.06346
      C   44   -0.06244      1.99994     4.06249    0.00000     6.06244
      C   45   -0.06681      1.99993     4.06688    0.00000     6.06681
      C   46    0.04530      1.99993     3.95477    0.00000     5.95470
      C   47   -0.06042      1.99991     4.06051    0.00000     6.06042
      C   48   -0.07380      1.99994     4.07386    0.00000     6.07380
      C   49    0.40997      1.99991     3.59013    0.00000     5.59003
      O   50   -0.31144      1.99999     6.31145    0.00000     8.31144
      O   51   -0.26810      1.99999     6.26811    0.00000     8.26810
      C   52    0.03629      1.99984     3.96387    0.00000     5.96371
      C   53   -0.01514      1.99993     4.01522    0.00000     6.01514
      O   54   -0.51408      2.00000     6.51409    0.00000     8.51408
      H   55    0.03452      0.00000     0.96548    0.00000     0.96548
      H   56    0.02801      0.00000     0.97199    0.00000     0.97199
      H   57    0.03421      0.00000     0.96579    0.00000     0.96579
      H   58    0.01291      0.00000     0.98709    0.00000     0.98709
      H   59    0.03066      0.00000     0.96934    0.00000     0.96934
      H   60    0.02662      0.00000     0.97338    0.00000     0.97338
      H   61    0.02827      0.00000     0.97173    0.00000     0.97173
      H   62    0.02914      0.00000     0.97086    0.00000     0.97086
      H   63    0.01265      0.00000     0.98735    0.00000     0.98735
      H   64    0.03580      0.00000     0.96420    0.00000     0.96420
      H   65    0.02894      0.00000     0.97106    0.00000     0.97106
      H   66    0.03273      0.00000     0.96727    0.00000     0.96727
      H   67    0.02575      0.00000     0.97425    0.00000     0.97425
      H   68    0.03013      0.00000     0.96987    0.00000     0.96987
      H   69    0.03421      0.00000     0.96579    0.00000     0.96579
      H   70    0.03829      0.00000     0.96171    0.00000     0.96171
      H   71    0.01415      0.00000     0.98585    0.00000     0.98585
      H   72    0.03519      0.00000     0.96481    0.00000     0.96481
      H   73    0.04652      0.00000     0.95348    0.00000     0.95348
      H   74    0.02982      0.00000     0.97018    0.00000     0.97018
      H   75    0.03980      0.00000     0.96020    0.00000     0.96020
      H   76    0.04177      0.00000     0.95823    0.00000     0.95823
      H   77    0.04540      0.00000     0.95460    0.00000     0.95460
      H   78    0.04062      0.00000     0.95938    0.00000     0.95938
      H   79    0.03008      0.00000     0.96992    0.00000     0.96992
      H   80    0.05005      0.00000     0.94995    0.00000     0.94995
      H   81    0.04647      0.00000     0.95353    0.00000     0.95353
      H   82    0.04097      0.00000     0.95903    0.00000     0.95903
      H   83    0.04045      0.00000     0.95955    0.00000     0.95955
      H   84    0.03266      0.00000     0.96734    0.00000     0.96734
      H   85    0.02832      0.00000     0.97168    0.00000     0.97168
      H   86    0.03588      0.00000     0.96412    0.00000     0.96412
      H   87    0.02265      0.00000     0.97735    0.00000     0.97735
      H   88    0.03079      0.00000     0.96921    0.00000     0.96921
      H   89    0.02652      0.00000     0.97348    0.00000     0.97348
      H   90    0.03210      0.00000     0.96790    0.00000     0.96790
      H   91    0.02607      0.00000     0.97393    0.00000     0.97393
      H   92    0.05390      0.00000     0.94610    0.00000     0.94610
      H   93    0.02649      0.00000     0.97351    0.00000     0.97351
      H   94    0.05577      0.00000     0.94423    0.00000     0.94423
      H   95    0.03628      0.00000     0.96372    0.00000     0.96372
      H   96    0.02474      0.00000     0.97526    0.00000     0.97526
      H   97    0.03580      0.00000     0.96420    0.00000     0.96420
      H   98    0.04369      0.00000     0.95631    0.00000     0.95631
      H   99    0.06744      0.00000     0.93256    0.00000     0.93256
      H  100    0.02840      0.00000     0.97160    0.00000     0.97160
      H  101    0.05839      0.00000     0.94161    0.00000     0.94161
      H  102    0.07275      0.00000     0.92725    0.00000     0.92725
      H  103    0.02111      0.00000     0.97889    0.00000     0.97889
      H  104    0.03861      0.00000     0.96139    0.00000     0.96139
      H  105    0.04338      0.00000     0.95662    0.00000     0.95662
      H  106    0.04650      0.00000     0.95350    0.00000     0.95350
      H  107    0.03591      0.00000     0.96409    0.00000     0.96409
      H  108    0.04846      0.00000     0.95154    0.00000     0.95154
      H  109    0.05077      0.00000     0.94923    0.00000     0.94923
      H  110    0.02910      0.00000     0.97090    0.00000     0.97090
 =======================================================================
   * Total *   -0.00000    107.99664   286.00336    0.00000   394.00000

 Normal termination of Gaussian 16 at Thu May 30 09:57:10 2024.
