 Gaussian 16, Revision B.01,
 Gaussian 16:  ES64L-G16RevB.01 20-Dec-2017

 ----------------------------------------------
 # nmr=giao hf/sto-3g pop=nbo geom=connectivity
 ----------------------------------------------

 -----------------
 Pleiokomenine_C_2
 -----------------
 Symbolic Z-matrix:
 Charge =  0 Multiplicity = 1

                         Standard orientation:
 ---------------------------------------------------------------------
 Center     Atomic      Atomic             Coordinates (Angstroms)
 Number     Number       Type             X           Y           Z
 ---------------------------------------------------------------------
      1          6           0       -1.870931    1.959846    0.532110
      2          6           0       -1.768435    3.355924    0.602423
      3          6           0       -2.942336    4.129615    0.478875
      4          6           0       -4.192916    3.534275    0.250557
      5          6           0       -4.271706    2.157337    0.138423
      6          6           0       -3.110475    1.386588    0.297769
      7          7           0       -5.412024    1.357110   -0.139392
      8          6           0       -3.475500   -0.073914    0.228833
      9          6           0       -4.800169    0.087613   -0.614775
     10          6           0       -2.543289   -1.071384   -0.475440
     11          6           0       -4.415421    0.239276   -2.151701
     12          6           0       -3.691869   -1.009502   -2.671052
     13          6           0       -3.376811   -1.937767   -1.481644
     14          7           0       -1.882821   -1.798115    0.614332
     15          6           0       -1.218096   -3.030463    0.209324
     16          6           0       -2.027179   -3.932133   -0.721899
     17          6           0       -2.553663   -3.154490   -1.927484
     18          6           0       -3.545025   -0.574295    1.691849
     19          6           0       -2.831034   -1.920212    1.711809
     20          6           0       -4.771727   -2.387496   -0.926200
     21          6           0       -5.676726   -1.176001   -0.568204
     22          6           0       -6.478068   -1.411641    0.699815
     23          8           0       -6.240711   -2.278935    1.531449
     24          8           0       -7.551581   -0.574138    0.753639
     25          6           0       -8.341837   -0.710614    1.934281
     26          6           0       -6.494398    1.993919   -0.873932
     27          6           0       -0.440351    4.032558    0.881734
     28          6           0        0.729573    3.457031    0.108405
     29          6           0        1.503269    2.428889    0.670782
     30          6           0        0.986990    3.886160   -1.212466
     31          6           0        2.008160    3.310649   -1.976566
     32          6           0        2.753111    2.287655   -1.418684
     33          6           0        2.484673    1.840036   -0.109308
     34          7           0        3.876666    1.625115   -2.027335
     35          6           0        3.283320    0.579899    0.123282
     36          6           0        4.460233    0.924697   -0.845596
     37          6           0        3.892277    0.239519    1.474946
     38          6           0        5.357540    2.118487   -0.173907
     39          6           0        5.762618    1.809758    1.267104
     40          6           0        5.423331    0.344737    1.559352
     41          7           0        3.433143   -1.173905    1.790516
     42          6           0        3.651126   -1.415450    3.248721
     43          6           0        5.162188   -1.329387    3.539281
     44          6           0        5.844052   -0.053887    2.994331
     45          6           0        2.246249   -0.559741   -0.108165
     46          6           0        2.034308   -1.160444    1.291887
     47          6           0        6.149757   -0.460805    0.432012
     48          6           0        5.524870   -0.195558   -0.993356
     49          6           0        5.156016   -1.506354   -1.680984
     50          8           0        4.171963   -1.712290   -2.376952
     51          8           0        6.179876   -2.405785   -1.547131
     52          6           0        5.905152   -3.686359   -2.112882
     53          6           0        3.483635    0.902344   -3.228064
     54          8           0        4.079856   -2.166767    1.095974
     55          1           0       -1.008571    1.315303    0.664493
     56          1           0       -2.889987    5.213434    0.561060
     57          1           0       -5.074402    4.158351    0.159740
     58          1           0       -1.755973   -0.545331   -1.032705
     59          1           0       -5.313841    0.406335   -2.759713
     60          1           0       -3.780031    1.116361   -2.327002
     61          1           0       -4.317920   -1.525063   -3.410372
     62          1           0       -2.776733   -0.712117   -3.198025
     63          1           0       -0.293239   -2.750770   -0.311431
     64          1           0       -0.896161   -3.597870    1.090974
     65          1           0       -1.389652   -4.751939   -1.073644
     66          1           0       -2.853303   -4.396977   -0.173225
     67          1           0       -1.700544   -2.825200   -2.535042
     68          1           0       -3.152076   -3.817853   -2.563168
     69          1           0       -2.990919    0.094253    2.366917
     70          1           0       -4.551019   -0.620212    2.106510
     71          1           0       -2.315406   -2.071495    2.666244
     72          1           0       -3.532460   -2.746617    1.587090
     73          1           0       -4.661406   -3.078903   -0.090660
     74          1           0       -5.289636   -2.976373   -1.697024
     75          1           0       -6.440011   -1.115262   -1.359244
     76          1           0       -9.137158    0.038930    1.897800
     77          1           0       -7.735652   -0.527814    2.827141
     78          1           0       -8.801922   -1.702810    1.972788
     79          1           0       -6.138293    2.492713   -1.782305
     80          1           0       -7.000350    2.733220   -0.243800
     81          1           0       -7.247955    1.257780   -1.170046
     82          1           0       -0.507946    5.103818    0.650574
     83          1           0       -0.239571    3.972280    1.959310
     84          1           0        1.279568    2.056001    1.665054
     85          1           0        0.379478    4.673097   -1.655196
     86          1           0        2.217109    3.669816   -2.977888
     87          1           0        3.429302    0.870656    2.248492
     88          1           0        4.854919    3.094011   -0.186369
     89          1           0        6.257048    2.274460   -0.786627
     90          1           0        6.831460    2.012000    1.408495
     91          1           0        5.228217    2.478835    1.953617
     92          1           0        3.253941   -2.411541    3.470222
     93          1           0        3.080305   -0.661738    3.800915
     94          1           0        5.664181   -2.201055    3.101206
     95          1           0        5.326229   -1.394705    4.620987
     96          1           0        6.933041   -0.168548    3.053617
     97          1           0        5.585892    0.766003    3.678431
     98          1           0        1.284176   -0.242587   -0.527783
     99          1           0        2.625340   -1.334403   -0.770216
    100          1           0        1.650160   -2.184030    1.282816
    101          1           0        1.442650   -0.520051    1.953621
    102          1           0        6.209991   -1.522897    0.681248
    103          1           0        7.203061   -0.145105    0.398495
    104          1           0        6.325668    0.195954   -1.639817
    105          1           0        4.988304   -4.109304   -1.689770
    106          1           0        5.833064   -3.613046   -3.202311
    107          1           0        6.736934   -4.351539   -1.865044
    108          1           0        2.700674    0.162742   -3.031831
    109          1           0        4.354477    0.411188   -3.671815
    110          1           0        3.110051    1.594015   -3.992057
 ---------------------------------------------------------------------

 SCF Done:  E(RHF) =  -2300.19512454     A.U. after   16 cycles

      1  C    Isotropic =   125.3591   Anisotropy =   152.0103

      2  C    Isotropic =   120.7689   Anisotropy =   155.7316

      3  C    Isotropic =   119.0779   Anisotropy =   149.5515

      4  C    Isotropic =   133.6286   Anisotropy =   142.1127

      5  C    Isotropic =   109.2288   Anisotropy =   126.7261

      6  C    Isotropic =   117.7450   Anisotropy =   138.6614

      7  N    Isotropic =   273.7398   Anisotropy =    81.7630

      8  C    Isotropic =   196.2931   Anisotropy =    14.5885

      9  C    Isotropic =   181.1404   Anisotropy =    45.2515

     10  C    Isotropic =   190.2158   Anisotropy =    28.9981

     11  C    Isotropic =   213.9087   Anisotropy =    18.6188

     12  C    Isotropic =   213.0343   Anisotropy =    20.5607

     13  C    Isotropic =   213.7901   Anisotropy =     7.8016

     14  N    Isotropic =   302.1531   Anisotropy =    52.3094

     15  C    Isotropic =   205.3315   Anisotropy =    32.0191

     16  C    Isotropic =   224.4616   Anisotropy =     8.8013

     17  C    Isotropic =   215.4897   Anisotropy =    19.1034

     18  C    Isotropic =   210.7189   Anisotropy =    36.3264

     19  C    Isotropic =   199.9590   Anisotropy =    42.5840

     20  C    Isotropic =   212.2130   Anisotropy =    22.0440

     21  C    Isotropic =   209.1320   Anisotropy =    10.4409

     22  C    Isotropic =    96.4729   Anisotropy =    98.6048

     23  O    Isotropic =  -134.6748   Anisotropy =   887.6744

     24  O    Isotropic =   283.8805   Anisotropy =   140.1323

     25  C    Isotropic =   197.3888   Anisotropy =    57.6628

     26  C    Isotropic =   209.9316   Anisotropy =    41.8370

     27  C    Isotropic =   206.5832   Anisotropy =    19.2573

     28  C    Isotropic =   116.8588   Anisotropy =   166.0929

     29  C    Isotropic =   126.5362   Anisotropy =   147.8157

     30  C    Isotropic =   119.8406   Anisotropy =   155.2729

     31  C    Isotropic =   128.2236   Anisotropy =   153.3817

     32  C    Isotropic =   106.6861   Anisotropy =   127.2852

     33  C    Isotropic =   113.3198   Anisotropy =   148.5465

     34  N    Isotropic =   275.9043   Anisotropy =    77.7993

     35  C    Isotropic =   199.3498   Anisotropy =    11.8388

     36  C    Isotropic =   180.0371   Anisotropy =    35.5871

     37  C    Isotropic =   183.3145   Anisotropy =    42.9222

     38  C    Isotropic =   206.5501   Anisotropy =    33.1698

     39  C    Isotropic =   212.9180   Anisotropy =    19.3510

     40  C    Isotropic =   211.6324   Anisotropy =    11.9363

     41  N    Isotropic =   235.1846   Anisotropy =    22.6234

     42  C    Isotropic =   193.7149   Anisotropy =    50.4652

     43  C    Isotropic =   219.3755   Anisotropy =    11.3703

     44  C    Isotropic =   214.6702   Anisotropy =    22.3653

     45  C    Isotropic =   207.0210   Anisotropy =    37.6282

     46  C    Isotropic =   190.4180   Anisotropy =    58.2977

     47  C    Isotropic =   210.8066   Anisotropy =    25.1739

     48  C    Isotropic =   205.6004   Anisotropy =    14.8390

     49  C    Isotropic =    96.9544   Anisotropy =    95.1534

     50  O    Isotropic =  -117.5602   Anisotropy =   852.8692

     51  O    Isotropic =   286.5530   Anisotropy =   143.9345

     52  C    Isotropic =   197.5389   Anisotropy =    56.3004

     53  C    Isotropic =   207.5602   Anisotropy =    41.0900

     54  O    Isotropic =    77.0796   Anisotropy =   401.2008

     55  H    Isotropic =    26.5259   Anisotropy =    17.0892

     56  H    Isotropic =    25.7107   Anisotropy =     6.5986

     57  H    Isotropic =    26.5591   Anisotropy =     7.9441

     58  H    Isotropic =    32.1056   Anisotropy =    12.3844

     59  H    Isotropic =    32.3109   Anisotropy =    13.8366

     60  H    Isotropic =    33.2217   Anisotropy =     8.6208

     61  H    Isotropic =    32.5057   Anisotropy =    15.2068

     62  H    Isotropic =    32.8663   Anisotropy =    12.6919

     63  H    Isotropic =    32.1255   Anisotropy =    17.4207

     64  H    Isotropic =    32.0033   Anisotropy =    13.3573

     65  H    Isotropic =    32.7153   Anisotropy =    16.9835

     66  H    Isotropic =    32.6687   Anisotropy =    11.6309

     67  H    Isotropic =    32.8315   Anisotropy =    12.2092

     68  H    Isotropic =    32.6090   Anisotropy =    15.0164

     69  H    Isotropic =    32.5308   Anisotropy =    10.5978

     70  H    Isotropic =    32.9989   Anisotropy =    12.0364

     71  H    Isotropic =    32.0018   Anisotropy =    14.5256

     72  H    Isotropic =    32.0291   Anisotropy =     9.8323

     73  H    Isotropic =    31.4796   Anisotropy =     9.3123

     74  H    Isotropic =    32.3100   Anisotropy =    14.9564

     75  H    Isotropic =    31.2844   Anisotropy =    12.8522

     76  H    Isotropic =    30.5639   Anisotropy =    12.2280

     77  H    Isotropic =    30.6714   Anisotropy =     7.7437

     78  H    Isotropic =    30.5986   Anisotropy =    11.7191

     79  H    Isotropic =    31.9516   Anisotropy =    11.6130

     80  H    Isotropic =    30.7621   Anisotropy =    14.7301

     81  H    Isotropic =    30.9382   Anisotropy =    10.9730

     82  H    Isotropic =    29.7940   Anisotropy =    12.6662

     83  H    Isotropic =    30.2197   Anisotropy =     8.8324

     84  H    Isotropic =    25.9840   Anisotropy =    11.8126

     85  H    Isotropic =    25.9535   Anisotropy =     6.5329

     86  H    Isotropic =    26.0628   Anisotropy =     7.5477

     87  H    Isotropic =    31.6347   Anisotropy =     5.6901

     88  H    Isotropic =    32.4850   Anisotropy =     9.5750

     89  H    Isotropic =    31.4626   Anisotropy =    14.8266

     90  H    Isotropic =    32.1238   Anisotropy =    16.4058

     91  H    Isotropic =    32.8622   Anisotropy =    12.0307

     92  H    Isotropic =    30.8154   Anisotropy =    13.2379

     93  H    Isotropic =    31.9280   Anisotropy =    10.3300

     94  H    Isotropic =    31.0833   Anisotropy =    12.5224

     95  H    Isotropic =    32.2596   Anisotropy =    17.7590

     96  H    Isotropic =    32.0435   Anisotropy =    15.5796

     97  H    Isotropic =    32.5839   Anisotropy =    12.8706

     98  H    Isotropic =    32.5899   Anisotropy =    14.6520

     99  H    Isotropic =    31.0862   Anisotropy =     9.2831

    100  H    Isotropic =    30.7063   Anisotropy =    16.0031

    101  H    Isotropic =    31.2726   Anisotropy =    12.3545

    102  H    Isotropic =    30.1196   Anisotropy =    10.2447

    103  H    Isotropic =    31.5406   Anisotropy =    14.9703

    104  H    Isotropic =    31.0284   Anisotropy =    13.6432

    105  H    Isotropic =    30.5603   Anisotropy =     7.1933

    106  H    Isotropic =    30.6293   Anisotropy =    10.7961

    107  H    Isotropic =    30.6356   Anisotropy =    12.8838

    108  H    Isotropic =    31.5740   Anisotropy =     9.2490

    109  H    Isotropic =    31.7516   Anisotropy =    11.6657

    110  H    Isotropic =    31.1448   Anisotropy =    14.0891

 The electronic state is 1-A.
 Alpha  occ. eigenvalues --  -20.30617 -20.28753 -20.24601 -20.22787 -19.92206
 Alpha  occ. eigenvalues --  -15.48174 -15.33576 -15.32511 -15.30651 -11.16506
 Alpha  occ. eigenvalues --  -11.15182 -11.10552 -11.09671 -11.09407 -11.09024
 Alpha  occ. eigenvalues --  -11.08993 -11.08727 -11.08690 -11.07924 -11.07046
 Alpha  occ. eigenvalues --  -11.06765 -11.06427 -11.06392 -11.06194 -11.06189
 Alpha  occ. eigenvalues --  -11.06098 -11.05814 -11.05685 -11.05605 -11.05289
 Alpha  occ. eigenvalues --  -11.05198 -11.04933 -11.04760 -11.04701 -11.04602
 Alpha  occ. eigenvalues --  -11.04347 -11.04027 -11.03883 -11.03852 -11.03795
 Alpha  occ. eigenvalues --  -11.03746 -11.03711 -11.03190 -11.03094 -11.02827
 Alpha  occ. eigenvalues --  -11.02288 -11.02258 -11.02254 -11.02056 -11.01956
 Alpha  occ. eigenvalues --  -11.01814 -11.01752 -11.01465 -11.01367  -1.37843
 Alpha  occ. eigenvalues --   -1.36090  -1.29532  -1.27648  -1.25974  -1.21432
 Alpha  occ. eigenvalues --   -1.20149  -1.18856  -1.10336  -1.09660  -1.08950
 Alpha  occ. eigenvalues --   -1.07499  -1.05811  -1.04851  -1.02788  -1.00811
 Alpha  occ. eigenvalues --   -0.99089  -0.98591  -0.98342  -0.97501  -0.96769
 Alpha  occ. eigenvalues --   -0.96324  -0.95083  -0.94484  -0.93977  -0.92427
 Alpha  occ. eigenvalues --   -0.91637  -0.91517  -0.89466  -0.89039  -0.87833
 Alpha  occ. eigenvalues --   -0.86335  -0.84472  -0.82685  -0.81883  -0.80769
 Alpha  occ. eigenvalues --   -0.80440  -0.79589  -0.78132  -0.77659  -0.77256
 Alpha  occ. eigenvalues --   -0.77188  -0.74303  -0.74134  -0.72933  -0.72239
 Alpha  occ. eigenvalues --   -0.71210  -0.70301  -0.69343  -0.68318  -0.65905
 Alpha  occ. eigenvalues --   -0.65098  -0.64811  -0.64326  -0.63608  -0.63059
 Alpha  occ. eigenvalues --   -0.62304  -0.62181  -0.61347  -0.61220  -0.61065
 Alpha  occ. eigenvalues --   -0.60616  -0.59655  -0.59015  -0.58667  -0.58505
 Alpha  occ. eigenvalues --   -0.58195  -0.57990  -0.57827  -0.57409  -0.57327
 Alpha  occ. eigenvalues --   -0.56762  -0.56667  -0.55964  -0.55577  -0.55526
 Alpha  occ. eigenvalues --   -0.55094  -0.54790  -0.54576  -0.54550  -0.54063
 Alpha  occ. eigenvalues --   -0.53762  -0.53467  -0.53224  -0.52332  -0.51866
 Alpha  occ. eigenvalues --   -0.51705  -0.51303  -0.50974  -0.50824  -0.50213
 Alpha  occ. eigenvalues --   -0.49845  -0.49660  -0.49156  -0.48711  -0.48461
 Alpha  occ. eigenvalues --   -0.48131  -0.47840  -0.47546  -0.47255  -0.46773
 Alpha  occ. eigenvalues --   -0.46514  -0.46152  -0.45832  -0.45579  -0.45213
 Alpha  occ. eigenvalues --   -0.44877  -0.44679  -0.44422  -0.44098  -0.43723
 Alpha  occ. eigenvalues --   -0.43439  -0.43207  -0.43043  -0.42529  -0.42309
 Alpha  occ. eigenvalues --   -0.42028  -0.41938  -0.41341  -0.40724  -0.40545
 Alpha  occ. eigenvalues --   -0.40330  -0.40052  -0.38661  -0.38385  -0.38006
 Alpha  occ. eigenvalues --   -0.37351  -0.37216  -0.36466  -0.35612  -0.34209
 Alpha  occ. eigenvalues --   -0.33312  -0.32156  -0.31755  -0.31449  -0.30879
 Alpha  occ. eigenvalues --   -0.27235  -0.27201  -0.26253  -0.22189  -0.20874
 Alpha  occ. eigenvalues --   -0.16174  -0.15685
 Alpha virt. eigenvalues --    0.26629   0.26810   0.27409   0.28476   0.30467
 Alpha virt. eigenvalues --    0.32516   0.45636   0.47861   0.48308   0.48903
 Alpha virt. eigenvalues --    0.49672   0.50042   0.50275   0.51131   0.52230

 Mulliken charges:
               1
     1  C   -0.075307
     2  C   -0.000882
     3  C   -0.061731
     4  C   -0.089951
     5  C    0.089185
     6  C   -0.012549
     7  N   -0.286000
     8  C    0.017701
     9  C    0.127871
    10  C    0.039936
    11  C   -0.114970
    12  C   -0.105524
    13  C    0.027930
    14  N   -0.291652
    15  C   -0.016573
    16  C   -0.108134
    17  C   -0.102235
    18  C   -0.105507
    19  C   -0.020142
    20  C   -0.110488
    21  C   -0.066479
    22  C    0.319612
    23  O   -0.276965
    24  O   -0.255460
    25  C   -0.055805
    26  C   -0.079259
    27  C   -0.110017
    28  C    0.008255
    29  C   -0.081188
    30  C   -0.065436
    31  C   -0.077488
    32  C    0.082460
    33  C   -0.012464
    34  N   -0.281991
    35  C    0.006643
    36  C    0.124315
    37  C    0.041557
    38  C   -0.100663
    39  C   -0.107491
    40  C    0.039725
    41  N   -0.081505
    42  C   -0.003595
    43  C   -0.097661
    44  C   -0.099278
    45  C   -0.105766
    46  C   -0.003232
    47  C   -0.096291
    48  C   -0.058492
    49  C    0.331090
    50  O   -0.284497
    51  O   -0.257212
    52  C   -0.054795
    53  C   -0.082472
    54  O   -0.463428
    55  H    0.065400
    56  H    0.055455
    57  H    0.058266
    58  H    0.056324
    59  H    0.050771
    60  H    0.054836
    61  H    0.048487
    62  H    0.051365
    63  H    0.055807
    64  H    0.060351
    65  H    0.055740
    66  H    0.050295
    67  H    0.051814
    68  H    0.051715
    69  H    0.061593
    70  H    0.064084
    71  H    0.055498
    72  H    0.052106
    73  H    0.067767
    74  H    0.051613
    75  H    0.064994
    76  H    0.077206
    77  H    0.074575
    78  H    0.072386
    79  H    0.055553
    80  H    0.071714
    81  H    0.076577
    82  H    0.059558
    83  H    0.059483
    84  H    0.053338
    85  H    0.057864
    86  H    0.065418
    87  H    0.053805
    88  H    0.057938
    89  H    0.054006
    90  H    0.053071
    91  H    0.045572
    92  H    0.084582
    93  H    0.056008
    94  H    0.079958
    95  H    0.058104
    96  H    0.058442
    97  H    0.046938
    98  H    0.065132
    99  H    0.097175
   100  H    0.091773
   101  H    0.058856
   102  H    0.096799
   103  H    0.047003
   104  H    0.069104
   105  H    0.079570
   106  H    0.067683
   107  H    0.074089
   108  H    0.065770
   109  H    0.069622
   110  H    0.065342
 Sum of Mulliken charges =  -0.00000

 Dipole moment (field-independent basis, Debye):
    X=             -2.4779    Y=              1.2068    Z=              0.9384  Tot=              2.9116
 Quadrupole moment (field-independent basis, Debye-Ang):
   XX=           -289.1825   YY=           -305.0665   ZZ=           -290.7280
   XY=              3.5871   XZ=             12.6225   YZ=              4.4909

 Summary of Natural Population Analysis:

                                       Natural Population
                Natural  -----------------------------------------------
    Atom  No    Charge         Core      Valence    Rydberg      Total
 -----------------------------------------------------------------------
      C    1   -0.05700      1.99993     4.05707    0.00000     6.05700
      C    2    0.01330      1.99990     3.98680    0.00000     5.98670
      C    3   -0.03324      1.99994     4.03330    0.00000     6.03324
      C    4   -0.08691      1.99993     4.08697    0.00000     6.08691
      C    5    0.11232      1.99985     3.88783    0.00000     5.88768
      C    6   -0.02423      1.99990     4.02433    0.00000     6.02423
      N    7   -0.27425      1.99998     5.27428    0.00000     7.27425
      C    8    0.01920      1.99996     3.98084    0.00000     5.98080
      C    9    0.17153      1.99996     3.82851    0.00000     5.82847
      C   10    0.07377      1.99993     3.92629    0.00000     5.92623
      C   11   -0.08517      1.99994     4.08524    0.00000     6.08517
      C   12   -0.07383      1.99996     4.07387    0.00000     6.07383
      C   13    0.05034      1.99998     3.94969    0.00000     5.94966
      N   14   -0.27958      1.99999     5.27959    0.00000     7.27958
      C   15    0.03715      1.99993     3.96292    0.00000     5.96285
      C   16   -0.07464      1.99997     4.07467    0.00000     6.07464
      C   17   -0.06873      1.99996     4.06877    0.00000     6.06873
      C   18   -0.07544      1.99995     4.07549    0.00000     6.07544
      C   19    0.03315      1.99994     3.96691    0.00000     5.96685
      C   20   -0.07362      1.99992     4.07370    0.00000     6.07362
      C   21   -0.08443      1.99994     4.08449    0.00000     6.08443
      C   22    0.40291      1.99991     3.59718    0.00000     5.59709
      O   23   -0.31111      1.99999     6.31112    0.00000     8.31111
      O   24   -0.26705      1.99999     6.26705    0.00000     8.26705
      C   25    0.03460      1.99984     3.96556    0.00000     5.96540
      C   26   -0.01669      1.99992     4.01677    0.00000     6.01669
      C   27   -0.08736      1.99995     4.08740    0.00000     6.08736
      C   28    0.02755      1.99991     3.97254    0.00000     5.97245
      C   29   -0.06740      1.99992     4.06747    0.00000     6.06740
      C   30   -0.04135      1.99994     4.04140    0.00000     6.04135
      C   31   -0.06813      1.99993     4.06820    0.00000     6.06813
      C   32    0.10164      1.99985     3.89851    0.00000     5.89836
      C   33   -0.01708      1.99990     4.01718    0.00000     6.01708
      N   34   -0.27342      1.99998     5.27344    0.00000     7.27342
      C   35    0.00002      1.99996     4.00002    0.00000     5.99998
      C   36    0.16904      1.99996     3.83101    0.00000     5.83096
      C   37    0.07220      1.99991     3.92789    0.00000     5.92780
      C   38   -0.06578      1.99991     4.06587    0.00000     6.06578
      C   39   -0.07896      1.99996     4.07900    0.00000     6.07896
      C   40    0.05783      1.99998     3.94219    0.00000     5.94217
      N   41    0.03277      1.99999     4.96724    0.00000     6.96723
      C   42    0.04984      1.99992     3.95024    0.00000     5.95016
      C   43   -0.06411      1.99995     4.06416    0.00000     6.06411
      C   44   -0.06254      1.99995     4.06259    0.00000     6.06254
      C   45   -0.07407      1.99993     4.07414    0.00000     6.07407
      C   46    0.04764      1.99993     3.95243    0.00000     5.95236
      C   47   -0.05818      1.99991     4.05827    0.00000     6.05818
      C   48   -0.07235      1.99993     4.07241    0.00000     6.07235
      C   49    0.41543      1.99990     3.58467    0.00000     5.58457
      O   50   -0.32077      1.99998     6.32079    0.00000     8.32077
      O   51   -0.27022      1.99999     6.27023    0.00000     8.27022
      C   52    0.03552      1.99984     3.96464    0.00000     5.96448
      C   53   -0.02062      1.99992     4.02070    0.00000     6.02062
      O   54   -0.51595      2.00000     6.51595    0.00000     8.51595
      H   55    0.03900      0.00000     0.96100    0.00000     0.96100
      H   56    0.02812      0.00000     0.97188    0.00000     0.97188
      H   57    0.03408      0.00000     0.96592    0.00000     0.96592
      H   58    0.02503      0.00000     0.97497    0.00000     0.97497
      H   59    0.02864      0.00000     0.97136    0.00000     0.97136
      H   60    0.03186      0.00000     0.96814    0.00000     0.96814
      H   61    0.02752      0.00000     0.97248    0.00000     0.97248
      H   62    0.03023      0.00000     0.96977    0.00000     0.96977
      H   63    0.02858      0.00000     0.97142    0.00000     0.97142
      H   64    0.03457      0.00000     0.96543    0.00000     0.96543
      H   65    0.03577      0.00000     0.96423    0.00000     0.96423
      H   66    0.02973      0.00000     0.97027    0.00000     0.97027
      H   67    0.03091      0.00000     0.96909    0.00000     0.96909
      H   68    0.03085      0.00000     0.96915    0.00000     0.96915
      H   69    0.04046      0.00000     0.95954    0.00000     0.95954
      H   70    0.04137      0.00000     0.95863    0.00000     0.95863
      H   71    0.02942      0.00000     0.97058    0.00000     0.97058
      H   72    0.02306      0.00000     0.97694    0.00000     0.97694
      H   73    0.04246      0.00000     0.95754    0.00000     0.95754
      H   74    0.02940      0.00000     0.97060    0.00000     0.97060
      H   75    0.04212      0.00000     0.95788    0.00000     0.95788
      H   76    0.04615      0.00000     0.95385    0.00000     0.95385
      H   77    0.04309      0.00000     0.95691    0.00000     0.95691
      H   78    0.04085      0.00000     0.95915    0.00000     0.95915
      H   79    0.03014      0.00000     0.96986    0.00000     0.96986
      H   80    0.04737      0.00000     0.95263    0.00000     0.95263
      H   81    0.05217      0.00000     0.94783    0.00000     0.94783
      H   82    0.04042      0.00000     0.95958    0.00000     0.95958
      H   83    0.04083      0.00000     0.95917    0.00000     0.95917
      H   84    0.02887      0.00000     0.97113    0.00000     0.97113
      H   85    0.03070      0.00000     0.96930    0.00000     0.96930
      H   86    0.03996      0.00000     0.96004    0.00000     0.96004
      H   87    0.02152      0.00000     0.97848    0.00000     0.97848
      H   88    0.03286      0.00000     0.96714    0.00000     0.96714
      H   89    0.02972      0.00000     0.97028    0.00000     0.97028
      H   90    0.03266      0.00000     0.96734    0.00000     0.96734
      H   91    0.02505      0.00000     0.97495    0.00000     0.97495
      H   92    0.05299      0.00000     0.94701    0.00000     0.94701
      H   93    0.02545      0.00000     0.97455    0.00000     0.97455
      H   94    0.05544      0.00000     0.94456    0.00000     0.94456
      H   95    0.03640      0.00000     0.96360    0.00000     0.96360
      H   96    0.03617      0.00000     0.96383    0.00000     0.96383
      H   97    0.02489      0.00000     0.97511    0.00000     0.97511
      H   98    0.04265      0.00000     0.95735    0.00000     0.95735
      H   99    0.06913      0.00000     0.93087    0.00000     0.93087
      H  100    0.05998      0.00000     0.94002    0.00000     0.94002
      H  101    0.02828      0.00000     0.97172    0.00000     0.97172
      H  102    0.06789      0.00000     0.93211    0.00000     0.93211
      H  103    0.02319      0.00000     0.97681    0.00000     0.97681
      H  104    0.04473      0.00000     0.95527    0.00000     0.95527
      H  105    0.04774      0.00000     0.95226    0.00000     0.95226
      H  106    0.03644      0.00000     0.96356    0.00000     0.96356
      H  107    0.04332      0.00000     0.95668    0.00000     0.95668
      H  108    0.03921      0.00000     0.96079    0.00000     0.96079
      H  109    0.04536      0.00000     0.95464    0.00000     0.95464
      H  110    0.04167      0.00000     0.95833    0.00000     0.95833
 =======================================================================
   * Total *   -0.00000    107.99662   286.00338    0.00000   394.00000

 Normal termination of Gaussian 16 at Thu May 30 09:55:17 2024.
