 Gaussian 16, Revision B.01,
 Gaussian 16:  ES64L-G16RevB.01 20-Dec-2017

 ----------------------------------------------
 # nmr=giao hf/sto-3g pop=nbo geom=connectivity
 ----------------------------------------------

 -----------------
 Pleiokomenine_C_2
 -----------------
 Symbolic Z-matrix:
 Charge =  0 Multiplicity = 1

                         Standard orientation:
 ---------------------------------------------------------------------
 Center     Atomic      Atomic             Coordinates (Angstroms)
 Number     Number       Type             X           Y           Z
 ---------------------------------------------------------------------
      1          6           0        1.835932    1.770370   -0.950081
      2          6           0        1.610662    3.145021   -1.105232
      3          6           0        2.669805    4.043884   -0.859956
      4          6           0        3.928717    3.591910   -0.437355
      5          6           0        4.126827    2.235624   -0.246283
      6          6           0        3.081096    1.339891   -0.520335
      7          7           0        5.291510    1.572867    0.225236
      8          6           0        3.578207   -0.069560   -0.322926
      9          6           0        4.749076    0.266233    0.682081
     10          6           0        2.663555   -1.133975    0.302722
     11          6           0        4.139543    0.438315    2.142303
     12          6           0        3.478997   -0.858215    2.627092
     13          6           0        3.430350   -1.862999    1.459509
     14          7           0        2.242345   -1.973429   -0.823922
     15          6           0        1.660485   -3.255532   -0.448413
     16          6           0        2.414926   -4.022976    0.636144
     17          6           0        2.680165   -3.142221    1.856513
     18          6           0        3.902844   -0.616861   -1.733590
     19          6           0        3.342394   -2.032823   -1.775680
     20          6           0        4.927634   -2.182396    1.124326
     21          6           0        5.746501   -0.896632    0.823779
     22          6           0        6.736073   -1.096984   -0.310386
     23          8           0        6.704777   -2.018218   -1.117024
     24          8           0        7.717219   -0.152528   -0.266091
     25          6           0        8.673406   -0.251943   -1.321096
     26          6           0        6.192634    2.349450    1.062844
     27          6           0        0.263393    3.656575   -1.569968
     28          6           0       -0.893402    3.198100   -0.705758
     29          6           0       -1.616878    2.047679   -1.051953
     30          6           0       -1.195734    3.878808    0.494031
     31          6           0       -2.217735    3.439012    1.345188
     32          6           0       -2.930868    2.307640    0.997377
     33          6           0       -2.605018    1.607673   -0.186776
     34          7           0       -4.021746    1.705218    1.682948
     35          6           0       -3.419004    0.332348   -0.201929
     36          6           0       -4.640567    0.892562    0.606382
     37          6           0       -3.962521   -0.284474   -1.478452
     38          6           0       -5.477129    1.904804   -0.335533
     39          6           0       -5.856756    1.262088   -1.672928
     40          6           0       -5.490119   -0.230499   -1.631510
     41          7           0       -3.470184   -1.721757   -1.486385
     42          6           0       -3.616295   -2.249426   -2.874329
     43          6           0       -5.117179   -2.263923   -3.230181
     44          6           0       -5.853975   -0.930366   -2.964262
     45          6           0       -2.419045   -0.737949    0.327140
     46          6           0       -2.106056   -1.585049   -0.920571
     47          6           0       -6.241774   -0.793638   -0.375835
     48          6           0       -5.696586   -0.178790    0.964790
     49          6           0       -5.381464   -1.255202    1.991366
     50          8           0       -6.044763   -2.280054    2.119291
     51          8           0       -4.404826   -0.881373    2.857461
     52          6           0       -4.107299   -1.849790    3.861869
     53          6           0       -4.819470    2.537323    2.563910
     54          8           0       -4.136416   -2.575262   -0.645475
     55          1           0        1.062242    1.040575   -1.165203
     56          1           0        2.519808    5.112766   -0.996925
     57          1           0        4.722368    4.308054   -0.258344
     58          1           0        1.755488   -0.674932    0.717054
     59          1           0        4.922767    0.724806    2.855968
     60          1           0        3.401331    1.249036    2.181875
     61          1           0        4.042715   -1.272604    3.472437
     62          1           0        2.473206   -0.639337    3.006719
     63          1           0        0.645872   -3.060589   -0.079235
     64          1           0        1.531368   -3.890543   -1.333265
     65          1           0        1.820828   -4.891958    0.942496
     66          1           0        3.354578   -4.417478    0.234673
     67          1           0        1.719521   -2.882594    2.320248
     68          1           0        3.245668   -3.708779    2.605830
     69          1           0        4.956229   -0.567860   -2.005916
     70          1           0        3.381839   -0.041041   -2.512429
     71          1           0        2.983958   -2.278263   -2.781250
     72          1           0        4.101453   -2.771190   -1.512512
     73          1           0        5.006462   -2.916059    0.321884
     74          1           0        5.389009   -2.678932    1.990281
     75          1           0        6.382279   -0.721491    1.705378
     76          1           0        9.376659    0.579165   -1.219934
     77          1           0        8.181724   -0.171718   -2.295781
     78          1           0        9.231448   -1.190157   -1.243092
     79          1           0        5.665870    2.844090    1.886656
     80          1           0        6.705668    3.112016    0.467044
     81          1           0        6.966801    1.709763    1.497240
     82          1           0        0.106548    3.337159   -2.608548
     83          1           0        0.259991    4.753978   -1.599334
     84          1           0       -1.366167    1.488533   -1.947106
     85          1           0       -0.616765    4.755346    0.778864
     86          1           0       -2.426357    3.979446    2.260966
     87          1           0       -3.478550    0.190525   -2.344973
     88          1           0       -4.945955    2.842701   -0.538874
     89          1           0       -6.392003    2.216918    0.187112
     90          1           0       -6.926998    1.404243   -1.866840
     91          1           0       -5.325887    1.770785   -2.487840
     92          1           0       -3.190528   -3.258273   -2.880468
     93          1           0       -3.037404   -1.602587   -3.541382
     94          1           0       -5.616910   -3.051162   -2.651872
     95          1           0       -5.235263   -2.539900   -4.284353
     96          1           0       -6.936844   -1.093393   -3.024340
     97          1           0       -5.601685   -0.257018   -3.794898
     98          1           0       -1.490421   -0.345396    0.757637
     99          1           0       -2.868437   -1.375777    1.088367
    100          1           0       -1.712507   -2.579272   -0.692556
    101          1           0       -1.480991   -1.068198   -1.655465
    102          1           0       -6.257481   -1.885823   -0.360124
    103          1           0       -7.304804   -0.523431   -0.460163
    104          1           0       -6.542781    0.341234    1.440224
    105          1           0       -3.814574   -2.801734    3.407573
    106          1           0       -3.265625   -1.477014    4.452064
    107          1           0       -4.965068   -1.983875    4.528168
    108          1           0       -4.224878    2.872356    3.420549
    109          1           0       -5.661980    1.967599    2.968098
    110          1           0       -5.218328    3.417938    2.048883
 ---------------------------------------------------------------------

 SCF Done:  E(RHF) =  -2300.19919239     A.U. after   16 cycles

      1  C    Isotropic =   124.9761   Anisotropy =   151.8696

      2  C    Isotropic =   120.7464   Anisotropy =   156.3020

      3  C    Isotropic =   119.3756   Anisotropy =   148.0837

      4  C    Isotropic =   133.6651   Anisotropy =   142.1461

      5  C    Isotropic =   109.0753   Anisotropy =   126.6825

      6  C    Isotropic =   117.6217   Anisotropy =   139.0359

      7  N    Isotropic =   273.7931   Anisotropy =    81.7563

      8  C    Isotropic =   196.1161   Anisotropy =    14.4166

      9  C    Isotropic =   181.1262   Anisotropy =    45.0677

     10  C    Isotropic =   190.1453   Anisotropy =    28.5970

     11  C    Isotropic =   213.8784   Anisotropy =    18.5835

     12  C    Isotropic =   213.0007   Anisotropy =    20.2997

     13  C    Isotropic =   213.7402   Anisotropy =     8.1036

     14  N    Isotropic =   302.1007   Anisotropy =    52.3808

     15  C    Isotropic =   205.3531   Anisotropy =    32.6904

     16  C    Isotropic =   224.3744   Anisotropy =     8.4062

     17  C    Isotropic =   215.4190   Anisotropy =    19.0232

     18  C    Isotropic =   210.6969   Anisotropy =    36.5306

     19  C    Isotropic =   199.7866   Anisotropy =    43.0374

     20  C    Isotropic =   212.1954   Anisotropy =    22.1545

     21  C    Isotropic =   209.1131   Anisotropy =    10.6867

     22  C    Isotropic =    96.4217   Anisotropy =    98.7401

     23  O    Isotropic =  -134.7597   Anisotropy =   887.6473

     24  O    Isotropic =   283.8415   Anisotropy =   140.0212

     25  C    Isotropic =   197.3550   Anisotropy =    57.7399

     26  C    Isotropic =   209.9030   Anisotropy =    41.6993

     27  C    Isotropic =   206.5280   Anisotropy =    17.5729

     28  C    Isotropic =   119.5249   Anisotropy =   160.6590

     29  C    Isotropic =   126.9883   Anisotropy =   146.1289

     30  C    Isotropic =   119.0574   Anisotropy =   156.0703

     31  C    Isotropic =   133.7646   Anisotropy =   144.1504

     32  C    Isotropic =   108.1592   Anisotropy =   130.8215

     33  C    Isotropic =   117.1032   Anisotropy =   143.3742

     34  N    Isotropic =   271.9493   Anisotropy =    83.9618

     35  C    Isotropic =   200.6158   Anisotropy =    13.2471

     36  C    Isotropic =   178.7864   Anisotropy =    38.2330

     37  C    Isotropic =   183.6947   Anisotropy =    42.8805

     38  C    Isotropic =   210.8213   Anisotropy =    24.0789

     39  C    Isotropic =   212.6085   Anisotropy =    20.2630

     40  C    Isotropic =   211.3674   Anisotropy =    11.8698

     41  N    Isotropic =   235.2403   Anisotropy =    22.7739

     42  C    Isotropic =   193.7335   Anisotropy =    50.1531

     43  C    Isotropic =   219.1836   Anisotropy =    11.4054

     44  C    Isotropic =   214.7122   Anisotropy =    22.6744

     45  C    Isotropic =   206.2965   Anisotropy =    35.6575

     46  C    Isotropic =   190.4443   Anisotropy =    56.2937

     47  C    Isotropic =   211.0621   Anisotropy =    24.2109

     48  C    Isotropic =   207.5726   Anisotropy =    11.4428

     49  C    Isotropic =    98.4913   Anisotropy =   103.6858

     50  O    Isotropic =  -132.8659   Anisotropy =   875.3733

     51  O    Isotropic =   286.4822   Anisotropy =   131.8719

     52  C    Isotropic =   197.5820   Anisotropy =    57.2299

     53  C    Isotropic =   210.7562   Anisotropy =    42.1416

     54  O    Isotropic =    79.2158   Anisotropy =   396.9499

     55  H    Isotropic =    26.1547   Anisotropy =    16.2015

     56  H    Isotropic =    25.6837   Anisotropy =     6.6129

     57  H    Isotropic =    26.5475   Anisotropy =     7.8720

     58  H    Isotropic =    31.9581   Anisotropy =    13.2677

     59  H    Isotropic =    32.2784   Anisotropy =    13.6610

     60  H    Isotropic =    33.1883   Anisotropy =     8.8643

     61  H    Isotropic =    32.4634   Anisotropy =    14.9796

     62  H    Isotropic =    32.8037   Anisotropy =    13.0437

     63  H    Isotropic =    32.0261   Anisotropy =    18.0203

     64  H    Isotropic =    31.8836   Anisotropy =    13.8202

     65  H    Isotropic =    32.6595   Anisotropy =    16.9192

     66  H    Isotropic =    32.5925   Anisotropy =    11.8425

     67  H    Isotropic =    32.7667   Anisotropy =    12.6597

     68  H    Isotropic =    32.5465   Anisotropy =    14.7855

     69  H    Isotropic =    32.9484   Anisotropy =    12.0111

     70  H    Isotropic =    32.4281   Anisotropy =    10.7404

     71  H    Isotropic =    31.8956   Anisotropy =    15.0178

     72  H    Isotropic =    31.9621   Anisotropy =     9.8949

     73  H    Isotropic =    31.4264   Anisotropy =     9.5123

     74  H    Isotropic =    32.2664   Anisotropy =    14.8600

     75  H    Isotropic =    31.2468   Anisotropy =    12.7680

     76  H    Isotropic =    30.5431   Anisotropy =    12.2146

     77  H    Isotropic =    30.6426   Anisotropy =     7.7830

     78  H    Isotropic =    30.5737   Anisotropy =    11.7592

     79  H    Isotropic =    31.9241   Anisotropy =    11.4545

     80  H    Isotropic =    30.7372   Anisotropy =    14.7145

     81  H    Isotropic =    30.9119   Anisotropy =    10.9916

     82  H    Isotropic =    30.1719   Anisotropy =     8.4130

     83  H    Isotropic =    29.8734   Anisotropy =    12.4264

     84  H    Isotropic =    25.9146   Anisotropy =    11.9260

     85  H    Isotropic =    25.9357   Anisotropy =     7.1358

     86  H    Isotropic =    26.5169   Anisotropy =     7.6299

     87  H    Isotropic =    31.5948   Anisotropy =     5.7658

     88  H    Isotropic =    32.9944   Anisotropy =     8.8681

     89  H    Isotropic =    32.0378   Anisotropy =    13.6207

     90  H    Isotropic =    32.1326   Anisotropy =    15.9547

     91  H    Isotropic =    32.7982   Anisotropy =    11.9249

     92  H    Isotropic =    30.7505   Anisotropy =    13.4258

     93  H    Isotropic =    31.8550   Anisotropy =    10.2736

     94  H    Isotropic =    31.0309   Anisotropy =    12.9413

     95  H    Isotropic =    32.2491   Anisotropy =    17.5491

     96  H    Isotropic =    32.0411   Anisotropy =    15.4517

     97  H    Isotropic =    32.5796   Anisotropy =    12.5939

     98  H    Isotropic =    32.3876   Anisotropy =    13.3199

     99  H    Isotropic =    30.4970   Anisotropy =    11.7379

    100  H    Isotropic =    30.6299   Anisotropy =    15.9788

    101  H    Isotropic =    31.1340   Anisotropy =    13.4005

    102  H    Isotropic =    29.9944   Anisotropy =    11.2918

    103  H    Isotropic =    31.6851   Anisotropy =    15.1795

    104  H    Isotropic =    31.3376   Anisotropy =    13.0431

    105  H    Isotropic =    30.4796   Anisotropy =     8.3291

    106  H    Isotropic =    30.6413   Anisotropy =    10.0218

    107  H    Isotropic =    30.5552   Anisotropy =    12.7406

    108  H    Isotropic =    30.6847   Anisotropy =    14.1964

    109  H    Isotropic =    31.2653   Anisotropy =    11.6196

    110  H    Isotropic =    31.8738   Anisotropy =    12.4550

 The electronic state is 1-A.
 Alpha  occ. eigenvalues --  -20.30610 -20.29043 -20.24587 -20.22230 -19.91907
 Alpha  occ. eigenvalues --  -15.48131 -15.33541 -15.33517 -15.30658 -11.16495
 Alpha  occ. eigenvalues --  -11.14682 -11.10540 -11.09583 -11.09408 -11.09388
 Alpha  occ. eigenvalues --  -11.09202 -11.09093 -11.08703 -11.08097 -11.07903
 Alpha  occ. eigenvalues --  -11.07063 -11.06873 -11.06489 -11.06385 -11.06246
 Alpha  occ. eigenvalues --  -11.06150 -11.05878 -11.05676 -11.05625 -11.05557
 Alpha  occ. eigenvalues --  -11.05316 -11.05075 -11.04816 -11.04695 -11.04559
 Alpha  occ. eigenvalues --  -11.04358 -11.04166 -11.04108 -11.03888 -11.03882
 Alpha  occ. eigenvalues --  -11.03844 -11.03715 -11.03706 -11.03126 -11.02297
 Alpha  occ. eigenvalues --  -11.02250 -11.02144 -11.02028 -11.01935 -11.01751
 Alpha  occ. eigenvalues --  -11.01739 -11.01601 -11.01464 -11.01305  -1.37831
 Alpha  occ. eigenvalues --   -1.36112  -1.29602  -1.27635  -1.25396  -1.21410
 Alpha  occ. eigenvalues --   -1.20865  -1.18854  -1.10510  -1.09655  -1.08970
 Alpha  occ. eigenvalues --   -1.07550  -1.05793  -1.04875  -1.02718  -1.00808
 Alpha  occ. eigenvalues --   -0.99142  -0.98759  -0.98416  -0.97418  -0.96772
 Alpha  occ. eigenvalues --   -0.96485  -0.95185  -0.94491  -0.94166  -0.92300
 Alpha  occ. eigenvalues --   -0.91617  -0.91462  -0.90244  -0.89498  -0.87961
 Alpha  occ. eigenvalues --   -0.86395  -0.84796  -0.82877  -0.81885  -0.80925
 Alpha  occ. eigenvalues --   -0.80420  -0.79607  -0.78266  -0.77652  -0.77493
 Alpha  occ. eigenvalues --   -0.77256  -0.74474  -0.74118  -0.72778  -0.72230
 Alpha  occ. eigenvalues --   -0.71251  -0.70250  -0.69368  -0.68529  -0.65914
 Alpha  occ. eigenvalues --   -0.65293  -0.64856  -0.64787  -0.63597  -0.63230
 Alpha  occ. eigenvalues --   -0.62393  -0.62185  -0.61580  -0.61278  -0.61136
 Alpha  occ. eigenvalues --   -0.60607  -0.59702  -0.59421  -0.58714  -0.58510
 Alpha  occ. eigenvalues --   -0.58263  -0.58067  -0.57814  -0.57669  -0.57304
 Alpha  occ. eigenvalues --   -0.56799  -0.56685  -0.56600  -0.55766  -0.55284
 Alpha  occ. eigenvalues --   -0.54843  -0.54764  -0.54689  -0.54545  -0.54505
 Alpha  occ. eigenvalues --   -0.54069  -0.53816  -0.53329  -0.52511  -0.51827
 Alpha  occ. eigenvalues --   -0.51682  -0.51049  -0.50967  -0.50639  -0.50375
 Alpha  occ. eigenvalues --   -0.49958  -0.49539  -0.49442  -0.49096  -0.48588
 Alpha  occ. eigenvalues --   -0.48270  -0.48004  -0.47664  -0.47342  -0.47135
 Alpha  occ. eigenvalues --   -0.46471  -0.46159  -0.45905  -0.45589  -0.45154
 Alpha  occ. eigenvalues --   -0.44831  -0.44777  -0.44432  -0.44291  -0.43727
 Alpha  occ. eigenvalues --   -0.43542  -0.43355  -0.43133  -0.42549  -0.42517
 Alpha  occ. eigenvalues --   -0.42298  -0.41940  -0.41463  -0.41124  -0.40671
 Alpha  occ. eigenvalues --   -0.40485  -0.39877  -0.38763  -0.38419  -0.38144
 Alpha  occ. eigenvalues --   -0.37380  -0.37201  -0.36468  -0.35520  -0.34182
 Alpha  occ. eigenvalues --   -0.33301  -0.33068  -0.32058  -0.31292  -0.30811
 Alpha  occ. eigenvalues --   -0.27288  -0.27166  -0.26234  -0.21224  -0.20375
 Alpha  occ. eigenvalues --   -0.15853  -0.15355
 Alpha virt. eigenvalues --    0.26774   0.26982   0.27486   0.28939   0.30476
 Alpha virt. eigenvalues --    0.32915   0.45641   0.48094   0.48434   0.49099
 Alpha virt. eigenvalues --    0.49298   0.50146   0.50344   0.51829   0.52268

 Mulliken charges:
               1
     1  C   -0.074253
     2  C   -0.000062
     3  C   -0.061947
     4  C   -0.090052
     5  C    0.089265
     6  C   -0.012216
     7  N   -0.286130
     8  C    0.017870
     9  C    0.127897
    10  C    0.039987
    11  C   -0.115016
    12  C   -0.105576
    13  C    0.027909
    14  N   -0.291374
    15  C   -0.015839
    16  C   -0.108280
    17  C   -0.102125
    18  C   -0.105588
    19  C   -0.020100
    20  C   -0.110478
    21  C   -0.066474
    22  C    0.319608
    23  O   -0.276952
    24  O   -0.255431
    25  C   -0.055797
    26  C   -0.079213
    27  C   -0.109769
    28  C    0.001690
    29  C   -0.079621
    30  C   -0.061886
    31  C   -0.089996
    32  C    0.093773
    33  C   -0.014005
    34  N   -0.279370
    35  C    0.015638
    36  C    0.135149
    37  C    0.039835
    38  C   -0.116087
    39  C   -0.105465
    40  C    0.040640
    41  N   -0.080847
    42  C   -0.002906
    43  C   -0.097161
    44  C   -0.099024
    45  C   -0.095867
    46  C   -0.004138
    47  C   -0.098571
    48  C   -0.059136
    49  C    0.325082
    50  O   -0.273399
    51  O   -0.255637
    52  C   -0.055643
    53  C   -0.077509
    54  O   -0.461804
    55  H    0.064089
    56  H    0.055307
    57  H    0.058046
    58  H    0.056303
    59  H    0.050691
    60  H    0.055174
    61  H    0.048397
    62  H    0.051311
    63  H    0.052980
    64  H    0.060939
    65  H    0.055305
    66  H    0.050730
    67  H    0.050994
    68  H    0.051846
    69  H    0.064032
    70  H    0.062201
    71  H    0.056040
    72  H    0.051960
    73  H    0.067787
    74  H    0.051533
    75  H    0.064962
    76  H    0.077214
    77  H    0.074644
    78  H    0.072360
    79  H    0.055523
    80  H    0.071698
    81  H    0.076518
    82  H    0.057901
    83  H    0.058085
    84  H    0.053384
    85  H    0.057303
    86  H    0.060100
    87  H    0.053972
    88  H    0.054392
    89  H    0.049493
    90  H    0.053297
    91  H    0.046958
    92  H    0.085155
    93  H    0.055543
    94  H    0.081950
    95  H    0.057796
    96  H    0.058782
    97  H    0.046496
    98  H    0.066292
    99  H    0.091955
   100  H    0.090272
   101  H    0.059786
   102  H    0.101142
   103  H    0.045203
   104  H    0.061533
   105  H    0.076475
   106  H    0.073641
   107  H    0.070123
   108  H    0.073608
   109  H    0.072063
   110  H    0.055119
 Sum of Mulliken charges =  -0.00000

 Dipole moment (field-independent basis, Debye):
    X=              2.5063    Y=              3.1041    Z=             -0.5080  Tot=              4.0218
 Quadrupole moment (field-independent basis, Debye-Ang):
   XX=           -295.7315   YY=           -308.8279   ZZ=           -287.4414
   XY=            -19.1289   XZ=             15.2913   YZ=              3.1636

 Summary of Natural Population Analysis:

                                       Natural Population
                Natural  -----------------------------------------------
    Atom  No    Charge         Core      Valence    Rydberg      Total
 -----------------------------------------------------------------------
      C    1   -0.05580      1.99993     4.05588    0.00000     6.05580
      C    2    0.01385      1.99990     3.98624    0.00000     5.98615
      C    3   -0.03363      1.99994     4.03369    0.00000     6.03363
      C    4   -0.08704      1.99993     4.08710    0.00000     6.08704
      C    5    0.11237      1.99985     3.88777    0.00000     5.88763
      C    6   -0.02363      1.99990     4.02373    0.00000     6.02363
      N    7   -0.27446      1.99998     5.27449    0.00000     7.27446
      C    8    0.01948      1.99996     3.98056    0.00000     5.98052
      C    9    0.17147      1.99996     3.82857    0.00000     5.82853
      C   10    0.07384      1.99993     3.92623    0.00000     5.92616
      C   11   -0.08524      1.99994     4.08531    0.00000     6.08524
      C   12   -0.07389      1.99996     4.07393    0.00000     6.07389
      C   13    0.05029      1.99998     3.94974    0.00000     5.94971
      N   14   -0.27937      1.99999     5.27938    0.00000     7.27937
      C   15    0.03790      1.99993     3.96217    0.00000     5.96210
      C   16   -0.07480      1.99997     4.07484    0.00000     6.07480
      C   17   -0.06854      1.99996     4.06859    0.00000     6.06854
      C   18   -0.07567      1.99995     4.07573    0.00000     6.07567
      C   19    0.03322      1.99994     3.96684    0.00000     5.96678
      C   20   -0.07365      1.99992     4.07373    0.00000     6.07365
      C   21   -0.08444      1.99994     4.08449    0.00000     6.08444
      C   22    0.40291      1.99991     3.59718    0.00000     5.59709
      O   23   -0.31111      1.99999     6.31112    0.00000     8.31111
      O   24   -0.26702      1.99999     6.26702    0.00000     8.26702
      C   25    0.03462      1.99984     3.96554    0.00000     5.96538
      C   26   -0.01661      1.99992     4.01669    0.00000     6.01661
      C   27   -0.08653      1.99996     4.08658    0.00000     6.08653
      C   28    0.01607      1.99991     3.98402    0.00000     5.98393
      C   29   -0.06394      1.99992     4.06401    0.00000     6.06394
      C   30   -0.03346      1.99994     4.03352    0.00000     6.03346
      C   31   -0.08806      1.99993     4.08813    0.00000     6.08806
      C   32    0.11756      1.99985     3.88259    0.00000     5.88244
      C   33   -0.02206      1.99990     4.02217    0.00000     6.02206
      N   34   -0.26944      1.99998     5.26946    0.00000     7.26944
      C   35    0.01128      1.99996     3.98876    0.00000     5.98872
      C   36    0.17939      1.99996     3.82065    0.00000     5.82061
      C   37    0.06872      1.99991     3.93137    0.00000     5.93128
      C   38   -0.08443      1.99993     4.08450    0.00000     6.08443
      C   39   -0.07475      1.99996     4.07479    0.00000     6.07475
      C   40    0.05984      1.99998     3.94019    0.00000     5.94016
      N   41    0.03385      1.99999     4.96617    0.00000     6.96615
      C   42    0.05035      1.99992     3.94973    0.00000     5.94965
      C   43   -0.06344      1.99995     4.06349    0.00000     6.06344
      C   44   -0.06238      1.99994     4.06243    0.00000     6.06238
      C   45   -0.06424      1.99993     4.06431    0.00000     6.06424
      C   46    0.04630      1.99993     3.95377    0.00000     5.95370
      C   47   -0.06069      1.99991     4.06078    0.00000     6.06069
      C   48   -0.07449      1.99994     4.07455    0.00000     6.07449
      C   49    0.40555      1.99991     3.59454    0.00000     5.59445
      O   50   -0.30900      1.99999     6.30901    0.00000     8.30900
      O   51   -0.26677      1.99999     6.26677    0.00000     8.26677
      C   52    0.03479      1.99984     3.96537    0.00000     5.96521
      C   53   -0.01551      1.99993     4.01558    0.00000     6.01551
      O   54   -0.51469      2.00000     6.51470    0.00000     8.51469
      H   55    0.03790      0.00000     0.96210    0.00000     0.96210
      H   56    0.02811      0.00000     0.97189    0.00000     0.97189
      H   57    0.03393      0.00000     0.96607    0.00000     0.96607
      H   58    0.02498      0.00000     0.97502    0.00000     0.97502
      H   59    0.02857      0.00000     0.97143    0.00000     0.97143
      H   60    0.03218      0.00000     0.96782    0.00000     0.96782
      H   61    0.02744      0.00000     0.97256    0.00000     0.97256
      H   62    0.03020      0.00000     0.96980    0.00000     0.96980
      H   63    0.02588      0.00000     0.97412    0.00000     0.97412
      H   64    0.03512      0.00000     0.96488    0.00000     0.96488
      H   65    0.03535      0.00000     0.96465    0.00000     0.96465
      H   66    0.03016      0.00000     0.96984    0.00000     0.96984
      H   67    0.03016      0.00000     0.96984    0.00000     0.96984
      H   68    0.03096      0.00000     0.96904    0.00000     0.96904
      H   69    0.04137      0.00000     0.95863    0.00000     0.95863
      H   70    0.04103      0.00000     0.95897    0.00000     0.95897
      H   71    0.02991      0.00000     0.97009    0.00000     0.97009
      H   72    0.02292      0.00000     0.97708    0.00000     0.97708
      H   73    0.04249      0.00000     0.95751    0.00000     0.95751
      H   74    0.02935      0.00000     0.97065    0.00000     0.97065
      H   75    0.04211      0.00000     0.95789    0.00000     0.95789
      H   76    0.04614      0.00000     0.95386    0.00000     0.95386
      H   77    0.04316      0.00000     0.95684    0.00000     0.95684
      H   78    0.04083      0.00000     0.95917    0.00000     0.95917
      H   79    0.03011      0.00000     0.96989    0.00000     0.96989
      H   80    0.04736      0.00000     0.95264    0.00000     0.95264
      H   81    0.05210      0.00000     0.94790    0.00000     0.94790
      H   82    0.03936      0.00000     0.96064    0.00000     0.96064
      H   83    0.03909      0.00000     0.96091    0.00000     0.96091
      H   84    0.02897      0.00000     0.97103    0.00000     0.97103
      H   85    0.02994      0.00000     0.97006    0.00000     0.97006
      H   86    0.03603      0.00000     0.96397    0.00000     0.96397
      H   87    0.02191      0.00000     0.97809    0.00000     0.97809
      H   88    0.03077      0.00000     0.96923    0.00000     0.96923
      H   89    0.02676      0.00000     0.97324    0.00000     0.97324
      H   90    0.03237      0.00000     0.96763    0.00000     0.96763
      H   91    0.02603      0.00000     0.97397    0.00000     0.97397
      H   92    0.05355      0.00000     0.94645    0.00000     0.94645
      H   93    0.02496      0.00000     0.97504    0.00000     0.97504
      H   94    0.05713      0.00000     0.94287    0.00000     0.94287
      H   95    0.03599      0.00000     0.96401    0.00000     0.96401
      H   96    0.03641      0.00000     0.96359    0.00000     0.96359
      H   97    0.02438      0.00000     0.97562    0.00000     0.97562
      H   98    0.04317      0.00000     0.95683    0.00000     0.95683
      H   99    0.06460      0.00000     0.93540    0.00000     0.93540
      H  100    0.05867      0.00000     0.94133    0.00000     0.94133
      H  101    0.02911      0.00000     0.97089    0.00000     0.97089
      H  102    0.07198      0.00000     0.92802    0.00000     0.92802
      H  103    0.02171      0.00000     0.97829    0.00000     0.97829
      H  104    0.03857      0.00000     0.96143    0.00000     0.96143
      H  105    0.04489      0.00000     0.95511    0.00000     0.95511
      H  106    0.04287      0.00000     0.95713    0.00000     0.95713
      H  107    0.03885      0.00000     0.96115    0.00000     0.96115
      H  108    0.04938      0.00000     0.95062    0.00000     0.95062
      H  109    0.04822      0.00000     0.95178    0.00000     0.95178
      H  110    0.02962      0.00000     0.97038    0.00000     0.97038
 =======================================================================
   * Total *   -0.00000    107.99665   286.00335    0.00000   394.00000

 Normal termination of Gaussian 16 at Thu May 30 09:47:21 2024.
