 Gaussian 16, Revision B.01,
 Gaussian 16:  ES64L-G16RevB.01 20-Dec-2017

 ----------------------------------------------
 # nmr=giao hf/sto-3g pop=nbo geom=connectivity
 ----------------------------------------------

 -----------------
 Pleiokomenine_C_2
 -----------------
 Symbolic Z-matrix:
 Charge =  0 Multiplicity = 1

                         Standard orientation:
 ---------------------------------------------------------------------
 Center     Atomic      Atomic             Coordinates (Angstroms)
 Number     Number       Type             X           Y           Z
 ---------------------------------------------------------------------
      1          6           0       -1.778857    2.176273   -0.983363
      2          6           0       -1.044035    3.258874   -0.481153
      3          6           0       -1.299618    3.724172    0.825943
      4          6           0       -2.279623    3.129350    1.631336
      5          6           0       -3.000469    2.059750    1.130048
      6          6           0       -2.724731    1.581267   -0.162769
      7          7           0       -4.033799    1.322430    1.767535
      8          6           0       -3.532685    0.329350   -0.395863
      9          6           0       -4.695337    0.641089    0.625201
     10          6           0       -4.133563    0.033646   -1.776500
     11          6           0       -5.722926    1.642116   -0.060954
     12          6           0       -6.360906    1.015093   -1.307965
     13          6           0       -5.652337   -0.318430   -1.618899
     14          7           0       -3.281312   -1.020771   -2.333939
     15          6           0       -3.839642   -1.715706   -3.486073
     16          6           0       -5.307244   -2.121907   -3.353089
     17          6           0       -6.176774   -0.941233   -2.920583
     18          6           0       -2.571811   -0.856750   -0.128751
     19          6           0       -2.829501   -1.865645   -1.239886
     20          6           0       -5.964323   -1.248815   -0.396975
     21          6           0       -5.539041   -0.603882    0.950178
     22          6           0       -4.930515   -1.613935    1.906728
     23          8           0       -4.484627   -2.708468    1.585234
     24          8           0       -5.011353   -1.167948    3.191768
     25          6           0       -4.435392   -2.049642    4.155353
     26          6           0       -4.808872    2.024826    2.779172
     27          6           0        0.081729    3.858882   -1.298628
     28          6           0        1.453329    3.324703   -0.933368
     29          6           0        1.675500    1.944536   -0.818295
     30          6           0        2.536321    4.213236   -0.754151
     31          6           0        3.817937    3.750307   -0.420310
     32          6           0        4.013696    2.391900   -0.257963
     33          6           0        2.941986    1.500723   -0.478686
     34          7           0        5.188878    1.707214    0.159884
     35          6           0        3.474304    0.091749   -0.348157
     36          6           0        4.620046    0.431267    0.666839
     37          6           0        2.655475   -1.038911    0.251303
     38          6           0        3.972613    0.742462    2.115951
     39          6           0        3.040301   -0.378877    2.581739
     40          6           0        3.155168   -1.561340    1.606339
     41          7           0        2.656546   -2.147196   -0.787821
     42          6           0        1.553390   -3.093068   -0.448355
     43          6           0        1.871553   -3.733425    0.918046
     44          6           0        2.225352   -2.723843    2.034980
     45          6           0        3.691962   -0.352127   -1.822589
     46          6           0        2.569570   -1.381973   -2.055064
     47          6           0        4.682065   -1.919092    1.586470
     48          6           0        5.553988   -0.762822    0.971044
     49          6           0        6.507246   -1.281722   -0.093524
     50          8           0        7.063168   -2.373980   -0.026694
     51          8           0        6.808654   -0.342818   -1.026991
     52          6           0        7.732098   -0.779264   -2.023077
     53          6           0        6.180853    2.449070    0.915160
     54          8           0        3.816638   -2.873191   -0.872233
     55          1           0       -1.576321    1.769503   -1.970362
     56          1           0       -0.714121    4.547418    1.231131
     57          1           0       -2.446660    3.502428    2.635117
     58          1           0       -4.040850    0.905984   -2.437764
     59          1           0       -5.242619    2.587144   -0.343999
     60          1           0       -6.518334    1.920931    0.642204
     61          1           0       -7.433196    0.854485   -1.139196
     62          1           0       -6.284004    1.712945   -2.150974
     63          1           0       -3.749722   -1.045553   -4.350934
     64          1           0       -3.231562   -2.594119   -3.734682
     65          1           0       -5.666062   -2.497902   -4.318456
     66          1           0       -5.404942   -2.950797   -2.643680
     67          1           0       -6.175071   -0.189593   -3.720677
     68          1           0       -7.216016   -1.270606   -2.803621
     69          1           0       -1.520638   -0.543849   -0.216504
     70          1           0       -2.652560   -1.287804    0.868379
     71          1           0       -1.908045   -2.396689   -1.501985
     72          1           0       -3.562808   -2.615890   -0.941244
     73          1           0       -5.533136   -2.240919   -0.531533
     74          1           0       -7.048179   -1.429777   -0.354937
     75          1           0       -6.468979   -0.289179    1.448542
     76          1           0       -4.511425   -1.574343    5.137155
     77          1           0       -4.985270   -2.995320    4.184109
     78          1           0       -3.376890   -2.221639    3.935663
     79          1           0       -5.184487    2.987538    2.414387
     80          1           0       -4.200497    2.201473    3.672658
     81          1           0       -5.669964    1.426851    3.092817
     82          1           0       -0.089647    3.677736   -2.367502
     83          1           0        0.052026    4.948994   -1.172470
     84          1           0        0.874837    1.234955   -0.994335
     85          1           0        2.384983    5.284821   -0.869144
     86          1           0        4.626790    4.457747   -0.279543
     87          1           0        1.604718   -0.722621    0.333356
     88          1           0        3.419012    1.688855    2.147514
     89          1           0        4.776720    0.872157    2.853563
     90          1           0        3.297590   -0.679849    3.604766
     91          1           0        2.008955   -0.005145    2.620957
     92          1           0        1.516264   -3.842148   -1.246210
     93          1           0        0.617330   -2.525585   -0.433760
     94          1           0        1.019110   -4.343994    1.237536
     95          1           0        2.715457   -4.425411    0.804083
     96          1           0        1.275977   -2.300654    2.390992
     97          1           0        2.656999   -3.260158    2.888544
     98          1           0        3.631334    0.447744   -2.569593
     99          1           0        4.657326   -0.837954   -1.965109
    100          1           0        1.571524   -0.936711   -2.116345
    101          1           0        2.755629   -2.055823   -2.896260
    102          1           0        4.872974   -2.884600    1.112668
    103          1           0        5.013939   -2.072233    2.624010
    104          1           0        6.252890   -0.440791    1.758577
    105          1           0        7.844591    0.025050   -2.755294
    106          1           0        7.352876   -1.666012   -2.541009
    107          1           0        8.710258   -0.978845   -1.574875
    108          1           0        6.993550    1.787312    1.230713
    109          1           0        6.632407    3.230111    0.294022
    110          1           0        5.754224    2.916433    1.809199
 ---------------------------------------------------------------------

 SCF Done:  E(RHF) =  -2300.19899272     A.U. after   16 cycles

      1  C    Isotropic =   123.8445   Anisotropy =   149.5701

      2  C    Isotropic =   119.0609   Anisotropy =   162.5556

      3  C    Isotropic =   119.0901   Anisotropy =   157.1208

      4  C    Isotropic =   133.6441   Anisotropy =   144.4465

      5  C    Isotropic =   109.0819   Anisotropy =   128.5737

      6  C    Isotropic =   117.2906   Anisotropy =   142.3766

      7  N    Isotropic =   274.3486   Anisotropy =    82.2573

      8  C    Isotropic =   195.8837   Anisotropy =    11.6207

      9  C    Isotropic =   181.0976   Anisotropy =    44.8164

     10  C    Isotropic =   190.4039   Anisotropy =    29.3982

     11  C    Isotropic =   213.7394   Anisotropy =    20.0333

     12  C    Isotropic =   212.7921   Anisotropy =    21.2073

     13  C    Isotropic =   213.5504   Anisotropy =     9.0890

     14  N    Isotropic =   302.2993   Anisotropy =    53.9415

     15  C    Isotropic =   205.1874   Anisotropy =    35.2219

     16  C    Isotropic =   224.1737   Anisotropy =     8.6267

     17  C    Isotropic =   215.3159   Anisotropy =    19.8908

     18  C    Isotropic =   210.2433   Anisotropy =    37.3093

     19  C    Isotropic =   199.9247   Anisotropy =    42.0224

     20  C    Isotropic =   212.1182   Anisotropy =    20.9060

     21  C    Isotropic =   209.0841   Anisotropy =     9.6804

     22  C    Isotropic =    96.2387   Anisotropy =    98.4997

     23  O    Isotropic =  -134.2943   Anisotropy =   888.8730

     24  O    Isotropic =   283.4287   Anisotropy =   139.9181

     25  C    Isotropic =   197.3492   Anisotropy =    56.8348

     26  C    Isotropic =   209.9226   Anisotropy =    41.8609

     27  C    Isotropic =   206.5165   Anisotropy =    18.7846

     28  C    Isotropic =   120.4380   Anisotropy =   156.4254

     29  C    Isotropic =   127.9629   Anisotropy =   149.3975

     30  C    Isotropic =   119.1448   Anisotropy =   149.0538

     31  C    Isotropic =   133.6248   Anisotropy =   142.7202

     32  C    Isotropic =   108.2610   Anisotropy =   129.4444

     33  C    Isotropic =   117.7382   Anisotropy =   140.0674

     34  N    Isotropic =   271.3290   Anisotropy =    83.1813

     35  C    Isotropic =   201.2298   Anisotropy =    17.3918

     36  C    Isotropic =   178.9172   Anisotropy =    39.1179

     37  C    Isotropic =   183.7405   Anisotropy =    41.1303

     38  C    Isotropic =   211.0445   Anisotropy =    22.8449

     39  C    Isotropic =   212.9633   Anisotropy =    19.3746

     40  C    Isotropic =   211.6968   Anisotropy =    10.5619

     41  N    Isotropic =   235.6425   Anisotropy =    25.4406

     42  C    Isotropic =   193.9653   Anisotropy =    49.5545

     43  C    Isotropic =   219.4342   Anisotropy =     9.4341

     44  C    Isotropic =   215.0018   Anisotropy =    21.8443

     45  C    Isotropic =   206.6889   Anisotropy =    33.1683

     46  C    Isotropic =   190.8043   Anisotropy =    50.4453

     47  C    Isotropic =   211.1896   Anisotropy =    25.5268

     48  C    Isotropic =   207.6516   Anisotropy =    12.5319

     49  C    Isotropic =    98.5135   Anisotropy =   103.5849

     50  O    Isotropic =  -133.0256   Anisotropy =   875.6554

     51  O    Isotropic =   286.2796   Anisotropy =   132.2001

     52  C    Isotropic =   197.5823   Anisotropy =    58.2644

     53  C    Isotropic =   210.7402   Anisotropy =    42.0566

     54  O    Isotropic =    78.9312   Anisotropy =   400.0557

     55  H    Isotropic =    25.4897   Anisotropy =    13.0866

     56  H    Isotropic =    26.0466   Anisotropy =     6.9496

     57  H    Isotropic =    26.6624   Anisotropy =     7.6974

     58  H    Isotropic =    31.4166   Anisotropy =     8.6884

     59  H    Isotropic =    32.8440   Anisotropy =     9.0984

     60  H    Isotropic =    32.1393   Anisotropy =    13.7784

     61  H    Isotropic =    32.3137   Anisotropy =    15.4750

     62  H    Isotropic =    32.5286   Anisotropy =    13.9054

     63  H    Isotropic =    31.7579   Anisotropy =    14.4127

     64  H    Isotropic =    31.7824   Anisotropy =    14.4863

     65  H    Isotropic =    32.5979   Anisotropy =    18.1366

     66  H    Isotropic =    32.5163   Anisotropy =    10.2708

     67  H    Isotropic =    32.6046   Anisotropy =    13.6207

     68  H    Isotropic =    32.4493   Anisotropy =    15.0334

     69  H    Isotropic =    32.5111   Anisotropy =    17.2143

     70  H    Isotropic =    32.9319   Anisotropy =     8.7668

     71  H    Isotropic =    31.9312   Anisotropy =    16.7451

     72  H    Isotropic =    31.8450   Anisotropy =     8.0564

     73  H    Isotropic =    31.3955   Anisotropy =     9.0190

     74  H    Isotropic =    32.1838   Anisotropy =    15.0354

     75  H    Isotropic =    31.1441   Anisotropy =    12.6085

     76  H    Isotropic =    30.5488   Anisotropy =    11.8007

     77  H    Isotropic =    30.5724   Anisotropy =    11.5445

     78  H    Isotropic =    30.6759   Anisotropy =     8.1776

     79  H    Isotropic =    31.9028   Anisotropy =    12.2840

     80  H    Isotropic =    30.7696   Anisotropy =    13.8202

     81  H    Isotropic =    30.8997   Anisotropy =    10.7959

     82  H    Isotropic =    30.1266   Anisotropy =     8.6338

     83  H    Isotropic =    29.8400   Anisotropy =    12.5836

     84  H    Isotropic =    26.8692   Anisotropy =    16.1723

     85  H    Isotropic =    25.6375   Anisotropy =     6.7341

     86  H    Isotropic =    26.4135   Anisotropy =     7.7057

     87  H    Isotropic =    32.1986   Anisotropy =    11.6733

     88  H    Isotropic =    33.3891   Anisotropy =     8.3479

     89  H    Isotropic =    32.2359   Anisotropy =    13.3441

     90  H    Isotropic =    32.4109   Anisotropy =    14.7886

     91  H    Isotropic =    33.3270   Anisotropy =    13.0285

     92  H    Isotropic =    30.9489   Anisotropy =    13.0104

     93  H    Isotropic =    32.2012   Anisotropy =    16.1782

     94  H    Isotropic =    32.4640   Anisotropy =    15.9516

     95  H    Isotropic =    31.2067   Anisotropy =    14.0293

     96  H    Isotropic =    32.9587   Anisotropy =    12.5507

     97  H    Isotropic =    32.2670   Anisotropy =    14.8267

     98  H    Isotropic =    32.4609   Anisotropy =    10.0148

     99  H    Isotropic =    30.6115   Anisotropy =    14.4335

    100  H    Isotropic =    31.5606   Anisotropy =    12.5453

    101  H    Isotropic =    30.8728   Anisotropy =    14.0262

    102  H    Isotropic =    30.1440   Anisotropy =    11.7833

    103  H    Isotropic =    31.8439   Anisotropy =    14.8147

    104  H    Isotropic =    31.4546   Anisotropy =    13.0941

    105  H    Isotropic =    30.6162   Anisotropy =    10.9772

    106  H    Isotropic =    30.4993   Anisotropy =     8.9568

    107  H    Isotropic =    30.5766   Anisotropy =    12.7649

    108  H    Isotropic =    31.3026   Anisotropy =    11.8084

    109  H    Isotropic =    30.6798   Anisotropy =    14.9949

    110  H    Isotropic =    31.9259   Anisotropy =    11.6585

 The electronic state is 1-A.
 Alpha  occ. eigenvalues --  -20.30965 -20.28894 -20.24949 -20.22104 -19.91777
 Alpha  occ. eigenvalues --  -15.48003 -15.33880 -15.33384 -15.31015 -11.16864
 Alpha  occ. eigenvalues --  -11.14544 -11.10871 -11.09773 -11.09427 -11.09255
 Alpha  occ. eigenvalues --  -11.09051 -11.09027 -11.08519 -11.08229 -11.07947
 Alpha  occ. eigenvalues --  -11.07457 -11.07166 -11.06730 -11.06697 -11.06318
 Alpha  occ. eigenvalues --  -11.06121 -11.06078 -11.05900 -11.05735 -11.05686
 Alpha  occ. eigenvalues --  -11.05491 -11.04895 -11.04730 -11.04709 -11.04606
 Alpha  occ. eigenvalues --  -11.04520 -11.04470 -11.04344 -11.04271 -11.04230
 Alpha  occ. eigenvalues --  -11.04221 -11.03968 -11.03540 -11.02985 -11.02311
 Alpha  occ. eigenvalues --  -11.02291 -11.02088 -11.02049 -11.02037 -11.01865
 Alpha  occ. eigenvalues --  -11.01836 -11.01818 -11.01702 -11.01430  -1.38187
 Alpha  occ. eigenvalues --   -1.35971  -1.29463  -1.28006  -1.25265  -1.21809
 Alpha  occ. eigenvalues --   -1.20713  -1.19261  -1.10346  -1.10008  -1.09035
 Alpha  occ. eigenvalues --   -1.07691  -1.05728  -1.05213  -1.02583  -1.01073
 Alpha  occ. eigenvalues --   -0.99325  -0.98639  -0.98596  -0.97446  -0.97137
 Alpha  occ. eigenvalues --   -0.96328  -0.95046  -0.94932  -0.94221  -0.92447
 Alpha  occ. eigenvalues --   -0.91954  -0.91617  -0.90097  -0.89561  -0.88025
 Alpha  occ. eigenvalues --   -0.86503  -0.84922  -0.82971  -0.82258  -0.80764
 Alpha  occ. eigenvalues --   -0.80289  -0.79955  -0.78147  -0.78096  -0.77654
 Alpha  occ. eigenvalues --   -0.77329  -0.74455  -0.74335  -0.72779  -0.72300
 Alpha  occ. eigenvalues --   -0.71591  -0.70253  -0.69753  -0.68357  -0.66298
 Alpha  occ. eigenvalues --   -0.65291  -0.65183  -0.64706  -0.63861  -0.63068
 Alpha  occ. eigenvalues --   -0.62532  -0.62163  -0.61567  -0.61435  -0.61163
 Alpha  occ. eigenvalues --   -0.60965  -0.60133  -0.59260  -0.58993  -0.58518
 Alpha  occ. eigenvalues --   -0.58436  -0.58182  -0.57909  -0.57670  -0.57396
 Alpha  occ. eigenvalues --   -0.57081  -0.56757  -0.56278  -0.56007  -0.55589
 Alpha  occ. eigenvalues --   -0.55136  -0.54837  -0.54549  -0.54518  -0.54355
 Alpha  occ. eigenvalues --   -0.54116  -0.54059  -0.53386  -0.52831  -0.52113
 Alpha  occ. eigenvalues --   -0.51639  -0.51240  -0.51001  -0.50628  -0.50423
 Alpha  occ. eigenvalues --   -0.50140  -0.49946  -0.49393  -0.49170  -0.48621
 Alpha  occ. eigenvalues --   -0.48339  -0.48217  -0.48057  -0.47467  -0.47081
 Alpha  occ. eigenvalues --   -0.46743  -0.46244  -0.45932  -0.45765  -0.45203
 Alpha  occ. eigenvalues --   -0.45042  -0.44770  -0.44639  -0.44484  -0.43986
 Alpha  occ. eigenvalues --   -0.43809  -0.43194  -0.42997  -0.42815  -0.42714
 Alpha  occ. eigenvalues --   -0.42371  -0.42096  -0.41694  -0.41278  -0.40935
 Alpha  occ. eigenvalues --   -0.40484  -0.39729  -0.38828  -0.38595  -0.37978
 Alpha  occ. eigenvalues --   -0.37729  -0.37092  -0.36749  -0.35458  -0.34525
 Alpha  occ. eigenvalues --   -0.33655  -0.32938  -0.32413  -0.31158  -0.30665
 Alpha  occ. eigenvalues --   -0.27562  -0.27084  -0.26592  -0.21385  -0.20461
 Alpha  occ. eigenvalues --   -0.15712  -0.15215
 Alpha virt. eigenvalues --    0.26766   0.26794   0.27513   0.28663   0.30087
 Alpha virt. eigenvalues --    0.33034   0.45832   0.47854   0.48241   0.48892
 Alpha virt. eigenvalues --    0.49380   0.49895   0.50326   0.51863   0.52035

 Mulliken charges:
               1
     1  C   -0.076291
     2  C    0.000208
     3  C   -0.062201
     4  C   -0.089515
     5  C    0.088620
     6  C   -0.014163
     7  N   -0.287007
     8  C    0.018147
     9  C    0.128000
    10  C    0.040123
    11  C   -0.114877
    12  C   -0.105565
    13  C    0.028027
    14  N   -0.291075
    15  C   -0.015401
    16  C   -0.108271
    17  C   -0.102129
    18  C   -0.104250
    19  C   -0.020098
    20  C   -0.110560
    21  C   -0.066722
    22  C    0.319779
    23  O   -0.277426
    24  O   -0.255380
    25  C   -0.055847
    26  C   -0.079278
    27  C   -0.110000
    28  C    0.001027
    29  C   -0.079200
    30  C   -0.062060
    31  C   -0.090545
    32  C    0.093564
    33  C   -0.013285
    34  N   -0.278807
    35  C    0.015396
    36  C    0.134828
    37  C    0.039891
    38  C   -0.116148
    39  C   -0.105576
    40  C    0.040696
    41  N   -0.080844
    42  C   -0.003166
    43  C   -0.097085
    44  C   -0.098990
    45  C   -0.095647
    46  C   -0.004597
    47  C   -0.098788
    48  C   -0.059310
    49  C    0.324620
    50  O   -0.273504
    51  O   -0.255565
    52  C   -0.055696
    53  C   -0.077756
    54  O   -0.461418
    55  H    0.063841
    56  H    0.057483
    57  H    0.058970
    58  H    0.057109
    59  H    0.054842
    60  H    0.051217
    61  H    0.048849
    62  H    0.050948
    63  H    0.054397
    64  H    0.061446
    65  H    0.054675
    66  H    0.050686
    67  H    0.050587
    68  H    0.051970
    69  H    0.056180
    70  H    0.064084
    71  H    0.053656
    72  H    0.053721
    73  H    0.067466
    74  H    0.051945
    75  H    0.065531
    76  H    0.077722
    77  H    0.072950
    78  H    0.073973
    79  H    0.055873
    80  H    0.071908
    81  H    0.076717
    82  H    0.059910
    83  H    0.058594
    84  H    0.056666
    85  H    0.055750
    86  H    0.059579
    87  H    0.055042
    88  H    0.054908
    89  H    0.049159
    90  H    0.052781
    91  H    0.048157
    92  H    0.084648
    93  H    0.056301
    94  H    0.058309
    95  H    0.081743
    96  H    0.046957
    97  H    0.058455
    98  H    0.066433
    99  H    0.092374
   100  H    0.058002
   101  H    0.089653
   102  H    0.101230
   103  H    0.045075
   104  H    0.061473
   105  H    0.074125
   106  H    0.076622
   107  H    0.069925
   108  H    0.072014
   109  H    0.073569
   110  H    0.054916
 Sum of Mulliken charges =  -0.00000

 Dipole moment (field-independent basis, Debye):
    X=             -5.3514    Y=              2.9959    Z=              1.6584  Tot=              6.3532
 Quadrupole moment (field-independent basis, Debye-Ang):
   XX=           -299.4278   YY=           -312.2530   ZZ=           -288.0073
   XY=             20.9769   XZ=              4.1500   YZ=             -0.2785

 Summary of Natural Population Analysis:

                                       Natural Population
                Natural  -----------------------------------------------
    Atom  No    Charge         Core      Valence    Rydberg      Total
 -----------------------------------------------------------------------
      C    1   -0.05803      1.99993     4.05811    0.00000     6.05803
      C    2    0.01410      1.99990     3.98600    0.00000     5.98590
      C    3   -0.03377      1.99994     4.03382    0.00000     6.03377
      C    4   -0.08624      1.99993     4.08631    0.00000     6.08624
      C    5    0.11153      1.99985     3.88861    0.00000     5.88847
      C    6   -0.02514      1.99990     4.02524    0.00000     6.02514
      N    7   -0.27541      1.99998     5.27543    0.00000     7.27541
      C    8    0.01978      1.99996     3.98026    0.00000     5.98022
      C    9    0.17126      1.99996     3.82878    0.00000     5.82874
      C   10    0.07351      1.99993     3.92656    0.00000     5.92649
      C   11   -0.08511      1.99994     4.08517    0.00000     6.08511
      C   12   -0.07365      1.99996     4.07369    0.00000     6.07365
      C   13    0.05046      1.99998     3.94956    0.00000     5.94954
      N   14   -0.27917      1.99999     5.27918    0.00000     7.27917
      C   15    0.03820      1.99994     3.96186    0.00000     5.96180
      C   16   -0.07466      1.99997     4.07470    0.00000     6.07466
      C   17   -0.06847      1.99996     4.06851    0.00000     6.06847
      C   18   -0.07368      1.99995     4.07374    0.00000     6.07368
      C   19    0.03292      1.99994     3.96714    0.00000     5.96708
      C   20   -0.07379      1.99992     4.07386    0.00000     6.07379
      C   21   -0.08474      1.99994     4.08479    0.00000     6.08474
      C   22    0.40321      1.99991     3.59688    0.00000     5.59679
      O   23   -0.31161      1.99999     6.31163    0.00000     8.31161
      O   24   -0.26698      1.99999     6.26699    0.00000     8.26698
      C   25    0.03459      1.99984     3.96557    0.00000     5.96541
      C   26   -0.01658      1.99992     4.01666    0.00000     6.01658
      C   27   -0.08674      1.99995     4.08679    0.00000     6.08674
      C   28    0.01588      1.99990     3.98422    0.00000     5.98412
      C   29   -0.06341      1.99992     4.06348    0.00000     6.06341
      C   30   -0.03379      1.99994     4.03384    0.00000     6.03379
      C   31   -0.08864      1.99993     4.08871    0.00000     6.08864
      C   32    0.11751      1.99985     3.88263    0.00000     5.88249
      C   33   -0.02196      1.99990     4.02207    0.00000     6.02196
      N   34   -0.26877      1.99998     5.26879    0.00000     7.26877
      C   35    0.01071      1.99996     3.98933    0.00000     5.98929
      C   36    0.17952      1.99996     3.82052    0.00000     5.82048
      C   37    0.06889      1.99991     3.93120    0.00000     5.93111
      C   38   -0.08444      1.99993     4.08452    0.00000     6.08444
      C   39   -0.07509      1.99996     4.07513    0.00000     6.07509
      C   40    0.05986      1.99998     3.94016    0.00000     5.94014
      N   41    0.03378      1.99999     4.96623    0.00000     6.96622
      C   42    0.05017      1.99992     3.94991    0.00000     5.94983
      C   43   -0.06346      1.99995     4.06351    0.00000     6.06346
      C   44   -0.06228      1.99994     4.06233    0.00000     6.06228
      C   45   -0.06409      1.99993     4.06415    0.00000     6.06409
      C   46    0.04591      1.99993     3.95416    0.00000     5.95409
      C   47   -0.06067      1.99991     4.06076    0.00000     6.06067
      C   48   -0.07470      1.99994     4.07476    0.00000     6.07470
      C   49    0.40504      1.99991     3.59504    0.00000     5.59496
      O   50   -0.30905      1.99999     6.30907    0.00000     8.30905
      O   51   -0.26667      1.99999     6.26668    0.00000     8.26667
      C   52    0.03475      1.99984     3.96541    0.00000     5.96525
      C   53   -0.01589      1.99993     4.01597    0.00000     6.01589
      O   54   -0.51429      2.00000     6.51429    0.00000     8.51429
      H   55    0.03814      0.00000     0.96186    0.00000     0.96186
      H   56    0.03018      0.00000     0.96982    0.00000     0.96982
      H   57    0.03480      0.00000     0.96520    0.00000     0.96520
      H   58    0.02587      0.00000     0.97413    0.00000     0.97413
      H   59    0.03190      0.00000     0.96810    0.00000     0.96810
      H   60    0.02906      0.00000     0.97094    0.00000     0.97094
      H   61    0.02780      0.00000     0.97220    0.00000     0.97220
      H   62    0.02981      0.00000     0.97019    0.00000     0.97019
      H   63    0.02728      0.00000     0.97272    0.00000     0.97272
      H   64    0.03559      0.00000     0.96441    0.00000     0.96441
      H   65    0.03474      0.00000     0.96526    0.00000     0.96526
      H   66    0.03007      0.00000     0.96993    0.00000     0.96993
      H   67    0.02975      0.00000     0.97025    0.00000     0.97025
      H   68    0.03104      0.00000     0.96896    0.00000     0.96896
      H   69    0.03544      0.00000     0.96456    0.00000     0.96456
      H   70    0.04126      0.00000     0.95874    0.00000     0.95874
      H   71    0.02783      0.00000     0.97217    0.00000     0.97217
      H   72    0.02451      0.00000     0.97549    0.00000     0.97549
      H   73    0.04225      0.00000     0.95775    0.00000     0.95775
      H   74    0.02975      0.00000     0.97025    0.00000     0.97025
      H   75    0.04263      0.00000     0.95737    0.00000     0.95737
      H   76    0.04661      0.00000     0.95339    0.00000     0.95339
      H   77    0.04135      0.00000     0.95865    0.00000     0.95865
      H   78    0.04255      0.00000     0.95745    0.00000     0.95745
      H   79    0.03043      0.00000     0.96957    0.00000     0.96957
      H   80    0.04752      0.00000     0.95248    0.00000     0.95248
      H   81    0.05228      0.00000     0.94772    0.00000     0.94772
      H   82    0.04115      0.00000     0.95885    0.00000     0.95885
      H   83    0.03957      0.00000     0.96043    0.00000     0.96043
      H   84    0.03158      0.00000     0.96842    0.00000     0.96842
      H   85    0.02844      0.00000     0.97156    0.00000     0.97156
      H   86    0.03550      0.00000     0.96450    0.00000     0.96450
      H   87    0.02285      0.00000     0.97715    0.00000     0.97715
      H   88    0.03122      0.00000     0.96878    0.00000     0.96878
      H   89    0.02644      0.00000     0.97356    0.00000     0.97356
      H   90    0.03194      0.00000     0.96806    0.00000     0.96806
      H   91    0.02716      0.00000     0.97284    0.00000     0.97284
      H   92    0.05309      0.00000     0.94691    0.00000     0.94691
      H   93    0.02564      0.00000     0.97436    0.00000     0.97436
      H   94    0.03647      0.00000     0.96353    0.00000     0.96353
      H   95    0.05695      0.00000     0.94305    0.00000     0.94305
      H   96    0.02479      0.00000     0.97521    0.00000     0.97521
      H   97    0.03608      0.00000     0.96392    0.00000     0.96392
      H   98    0.04333      0.00000     0.95667    0.00000     0.95667
      H   99    0.06503      0.00000     0.93497    0.00000     0.93497
      H  100    0.02749      0.00000     0.97251    0.00000     0.97251
      H  101    0.05815      0.00000     0.94185    0.00000     0.94185
      H  102    0.07199      0.00000     0.92801    0.00000     0.92801
      H  103    0.02156      0.00000     0.97844    0.00000     0.97844
      H  104    0.03850      0.00000     0.96150    0.00000     0.96150
      H  105    0.04331      0.00000     0.95669    0.00000     0.95669
      H  106    0.04503      0.00000     0.95497    0.00000     0.95497
      H  107    0.03865      0.00000     0.96135    0.00000     0.96135
      H  108    0.04819      0.00000     0.95181    0.00000     0.95181
      H  109    0.04938      0.00000     0.95062    0.00000     0.95062
      H  110    0.02944      0.00000     0.97056    0.00000     0.97056
 =======================================================================
   * Total *   -0.00000    107.99665   286.00335    0.00000   394.00000

 Normal termination of Gaussian 16 at Thu May 30 10:15:03 2024.
