 Gaussian 16, Revision B.01,
 Gaussian 16:  ES64L-G16RevB.01 20-Dec-2017

 ----------------------------------------------
 # nmr=giao hf/sto-3g pop=nbo geom=connectivity
 ----------------------------------------------

 -----------------
 Pleiokomenine_C_2
 -----------------
 Symbolic Z-matrix:
 Charge =  0 Multiplicity = 1

                         Standard orientation:
 ---------------------------------------------------------------------
 Center     Atomic      Atomic             Coordinates (Angstroms)
 Number     Number       Type             X           Y           Z
 ---------------------------------------------------------------------
      1          6           0       -1.887157    2.298728   -0.739632
      2          6           0       -1.192991    3.341162   -0.110387
      3          6           0       -1.450545    3.626866    1.246935
      4          6           0       -2.391984    2.891565    1.978956
      5          6           0       -3.070393    1.860357    1.353381
      6          6           0       -2.792180    1.561256    0.008158
      7          7           0       -4.057545    0.999083    1.902825
      8          6           0       -3.541107    0.308755   -0.371707
      9          6           0       -4.702133    0.432571    0.690397
     10          6           0       -4.147074    0.155482   -1.772959
     11          6           0       -5.787628    1.457301    0.142831
     12          6           0       -6.412812    0.956851   -1.166364
     13          6           0       -5.643925   -0.290313   -1.646890
     14          7           0       -3.252417   -0.777823   -2.464024
     15          6           0       -3.792631   -1.352593   -3.688593
     16          6           0       -5.236278   -1.846128   -3.594251
     17          6           0       -6.156455   -0.773572   -3.011056
     18          6           0       -2.518699   -0.850672   -0.261997
     19          6           0       -2.742052   -1.726693   -1.487405
     20          6           0       -5.890738   -1.379223   -0.547186
     21          6           0       -5.478725   -0.884131    0.865720
     22          6           0       -4.807530   -1.971533    1.685705
     23          8           0       -4.307368   -2.991693    1.228248
     24          8           0       -4.898101   -1.694220    3.016832
     25          6           0       -4.266599   -2.656784    3.860672
     26          6           0       -4.850803    1.532775    3.000153
     27          6           0       -0.100519    4.084052   -0.852757
     28          6           0        1.298618    3.561011   -0.583989
     29          6           0        1.556125    2.181585   -0.532072
     30          6           0        2.373804    4.467854   -0.444023
     31          6           0        3.681744    4.021552   -0.211132
     32          6           0        3.908542    2.660456   -0.121625
     33          6           0        2.849699    1.750371   -0.292957
     34          7           0        5.151287    2.027336    0.237859
     35          6           0        3.421109    0.354502   -0.301488
     36          6           0        4.664902    0.660012    0.594540
     37          6           0        2.686821   -0.821737    0.326849
     38          6           0        4.160824    0.893094    2.136367
     39          6           0        3.253828   -0.229827    2.636138
     40          6           0        3.302385   -1.375870    1.621132
     41          7           0        2.635196   -1.896407   -0.745772
     42          6           0        1.596337   -2.894138   -0.348020
     43          6           0        2.039036   -3.561706    0.968272
     44          6           0        2.431416   -2.568547    2.085128
     45          6           0        3.476681   -0.013033   -1.812065
     46          6           0        2.392614   -1.093686   -1.970585
     47          6           0        4.824164   -1.708543    1.473317
     48          6           0        5.631460   -0.539733    0.782094
     49          6           0        6.432980   -1.057756   -0.407329
     50          8           0        6.612362   -0.481213   -1.470577
     51          8           0        7.077558   -2.216297   -0.065371
     52          6           0        7.812194   -2.809205   -1.135133
     53          6           0        6.163555    2.232952   -0.787800
     54          8           0        3.813571   -2.570271   -0.955432
     55          1           0       -1.678554    2.027894   -1.771116
     56          1           0       -0.894806    4.417201    1.748226
     57          1           0       -2.560461    3.127183    3.023402
     58          1           0       -4.107425    1.106178   -2.321826
     59          1           0       -6.584936    1.606911    0.882133
     60          1           0       -5.358408    2.452850   -0.025370
     61          1           0       -7.473149    0.722062   -1.009169
     62          1           0       -6.383651    1.756360   -1.917172
     63          1           0       -3.748687   -0.577033   -4.464370
     64          1           0       -3.145733   -2.161566   -4.049474
     65          1           0       -5.590546   -2.117804   -4.595672
     66          1           0       -5.282452   -2.760058   -2.992401
     67          1           0       -6.203874    0.070244   -3.711806
     68          1           0       -7.176315   -1.167214   -2.926700
     69          1           0       -1.485814   -0.476092   -0.319341
     70          1           0       -2.562811   -1.404861    0.674688
     71          1           0       -1.798798   -2.172598   -1.821123
     72          1           0       -3.432021   -2.545058   -1.277639
     73          1           0       -5.412153   -2.323549   -0.806880
     74          1           0       -6.963408   -1.619896   -0.518772
     75          1           0       -6.415959   -0.680528    1.406432
     76          1           0       -4.357654   -2.312294    4.894387
     77          1           0       -3.202837   -2.743050    3.617470
     78          1           0       -4.765584   -3.626866    3.772966
     79          1           0       -5.276955    2.513516    2.760342
     80          1           0       -4.238890    1.627517    3.903546
     81          1           0       -5.677724    0.859171    3.244360
     82          1           0       -0.285520    4.040836   -1.933805
     83          1           0       -0.165159    5.145175   -0.578320
     84          1           0        0.762170    1.459872   -0.688015
     85          1           0        2.192907    5.539532   -0.500742
     86          1           0        4.488781    4.729962   -0.061169
     87          1           0        1.637013   -0.541220    0.501483
     88          1           0        3.634356    1.845305    2.279233
     89          1           0        5.041876    0.976297    2.788921
     90          1           0        3.576696   -0.558891    3.631432
     91          1           0        2.229115    0.145933    2.752491
     92          1           0        1.522872   -3.620697   -1.164018
     93          1           0        0.644672   -2.362935   -0.243447
     94          1           0        2.899007   -4.213759    0.771026
     95          1           0        1.236761   -4.215495    1.329099
     96          1           0        2.930962   -3.110945    2.897021
     97          1           0        1.496288   -2.178184    2.509692
     98          1           0        3.284417    0.814975   -2.504360
     99          1           0        4.437241   -0.433786   -2.099626
    100          1           0        2.527912   -1.730531   -2.849436
    101          1           0        1.373218   -0.697726   -1.921182
    102          1           0        4.971696   -2.675364    0.986181
    103          1           0        5.249151   -1.858981    2.476788
    104          1           0        6.420064   -0.220950    1.481367
    105          1           0        8.200985   -3.770207   -0.787019
    106          1           0        7.162904   -2.992401   -1.997322
    107          1           0        8.658342   -2.173494   -1.413286
    108          1           0        5.849461    1.855786   -1.766366
    109          1           0        7.100599    1.753991   -0.489685
    110          1           0        6.393736    3.299374   -0.895936
 ---------------------------------------------------------------------

 SCF Done:  E(RHF) =  -2300.19506655     A.U. after   15 cycles

      1  C    Isotropic =   123.6069   Anisotropy =   150.3188

      2  C    Isotropic =   119.1186   Anisotropy =   162.4903

      3  C    Isotropic =   118.9132   Anisotropy =   157.3095

      4  C    Isotropic =   133.5566   Anisotropy =   144.6172

      5  C    Isotropic =   108.9770   Anisotropy =   128.7884

      6  C    Isotropic =   117.2883   Anisotropy =   142.4245

      7  N    Isotropic =   274.2849   Anisotropy =    82.1691

      8  C    Isotropic =   195.9029   Anisotropy =    11.5837

      9  C    Isotropic =   181.1170   Anisotropy =    44.8465

     10  C    Isotropic =   190.4465   Anisotropy =    29.3900

     11  C    Isotropic =   213.7614   Anisotropy =    20.0273

     12  C    Isotropic =   212.7990   Anisotropy =    21.2162

     13  C    Isotropic =   213.5565   Anisotropy =     9.1220

     14  N    Isotropic =   302.3706   Anisotropy =    54.0253

     15  C    Isotropic =   205.2159   Anisotropy =    35.2539

     16  C    Isotropic =   224.1923   Anisotropy =     8.6215

     17  C    Isotropic =   215.3276   Anisotropy =    19.8955

     18  C    Isotropic =   210.2136   Anisotropy =    37.3630

     19  C    Isotropic =   199.9632   Anisotropy =    42.1454

     20  C    Isotropic =   212.1269   Anisotropy =    20.9287

     21  C    Isotropic =   209.0830   Anisotropy =     9.7206

     22  C    Isotropic =    96.1985   Anisotropy =    98.4595

     23  O    Isotropic =  -134.1858   Anisotropy =   888.8233

     24  O    Isotropic =   283.3450   Anisotropy =   140.0408

     25  C    Isotropic =   197.3467   Anisotropy =    56.8031

     26  C    Isotropic =   209.9068   Anisotropy =    41.9183

     27  C    Isotropic =   206.5388   Anisotropy =    19.7332

     28  C    Isotropic =   117.5699   Anisotropy =   161.0483

     29  C    Isotropic =   128.2270   Anisotropy =   149.0473

     30  C    Isotropic =   119.7453   Anisotropy =   149.5886

     31  C    Isotropic =   127.6284   Anisotropy =   152.1163

     32  C    Isotropic =   107.0142   Anisotropy =   125.3306

     33  C    Isotropic =   114.1725   Anisotropy =   144.5297

     34  N    Isotropic =   276.2168   Anisotropy =    76.1627

     35  C    Isotropic =   200.1544   Anisotropy =    16.4470

     36  C    Isotropic =   180.0762   Anisotropy =    36.7314

     37  C    Isotropic =   183.3360   Anisotropy =    41.1574

     38  C    Isotropic =   206.7820   Anisotropy =    31.8213

     39  C    Isotropic =   213.2733   Anisotropy =    18.5921

     40  C    Isotropic =   211.9673   Anisotropy =    10.5294

     41  N    Isotropic =   235.6312   Anisotropy =    25.7863

     42  C    Isotropic =   193.9676   Anisotropy =    49.4637

     43  C    Isotropic =   219.6474   Anisotropy =     9.6552

     44  C    Isotropic =   214.9647   Anisotropy =    21.5306

     45  C    Isotropic =   207.4965   Anisotropy =    34.1802

     46  C    Isotropic =   190.8956   Anisotropy =    51.1934

     47  C    Isotropic =   210.9723   Anisotropy =    26.3696

     48  C    Isotropic =   205.7365   Anisotropy =    15.7959

     49  C    Isotropic =    97.0515   Anisotropy =    96.0887

     50  O    Isotropic =  -118.5373   Anisotropy =   854.5178

     51  O    Isotropic =   286.5853   Anisotropy =   143.3566

     52  C    Isotropic =   197.5837   Anisotropy =    56.9306

     53  C    Isotropic =   207.5888   Anisotropy =    42.7723

     54  O    Isotropic =    76.7461   Anisotropy =   404.5961

     55  H    Isotropic =    25.5302   Anisotropy =    13.0808

     56  H    Isotropic =    26.0240   Anisotropy =     6.9447

     57  H    Isotropic =    26.6346   Anisotropy =     7.6186

     58  H    Isotropic =    31.4401   Anisotropy =     8.7434

     59  H    Isotropic =    32.1412   Anisotropy =    13.7911

     60  H    Isotropic =    32.8462   Anisotropy =     9.1203

     61  H    Isotropic =    32.3183   Anisotropy =    15.4582

     62  H    Isotropic =    32.5357   Anisotropy =    13.9286

     63  H    Isotropic =    31.7881   Anisotropy =    14.4817

     64  H    Isotropic =    31.8112   Anisotropy =    14.5169

     65  H    Isotropic =    32.6148   Anisotropy =    18.1370

     66  H    Isotropic =    32.5362   Anisotropy =    10.2698

     67  H    Isotropic =    32.6181   Anisotropy =    13.6341

     68  H    Isotropic =    32.4606   Anisotropy =    15.0119

     69  H    Isotropic =    32.5415   Anisotropy =    17.2645

     70  H    Isotropic =    32.9405   Anisotropy =     8.7802

     71  H    Isotropic =    31.9511   Anisotropy =    16.4517

     72  H    Isotropic =    31.8574   Anisotropy =     8.0453

     73  H    Isotropic =    31.4130   Anisotropy =     8.9863

     74  H    Isotropic =    32.1896   Anisotropy =    15.0254

     75  H    Isotropic =    31.1390   Anisotropy =    12.6133

     76  H    Isotropic =    30.5383   Anisotropy =    11.8164

     77  H    Isotropic =    30.6747   Anisotropy =     8.2651

     78  H    Isotropic =    30.5675   Anisotropy =    11.5290

     79  H    Isotropic =    31.8987   Anisotropy =    12.3068

     80  H    Isotropic =    30.7574   Anisotropy =    13.8207

     81  H    Isotropic =    30.8989   Anisotropy =    10.8136

     82  H    Isotropic =    30.1654   Anisotropy =     8.6304

     83  H    Isotropic =    29.7922   Anisotropy =    12.6608

     84  H    Isotropic =    27.1054   Anisotropy =    16.8235

     85  H    Isotropic =    25.6445   Anisotropy =     6.6964

     86  H    Isotropic =    25.9326   Anisotropy =     7.8944

     87  H    Isotropic =    32.2767   Anisotropy =    11.5008

     88  H    Isotropic =    32.8689   Anisotropy =     8.7730

     89  H    Isotropic =    31.6571   Anisotropy =    14.6246

     90  H    Isotropic =    32.3944   Anisotropy =    15.3486

     91  H    Isotropic =    33.3705   Anisotropy =    12.5843

     92  H    Isotropic =    31.0268   Anisotropy =    12.6855

     93  H    Isotropic =    32.3162   Anisotropy =    16.2596

     94  H    Isotropic =    31.2669   Anisotropy =    13.6183

     95  H    Isotropic =    32.4795   Anisotropy =    16.1337

     96  H    Isotropic =    32.2616   Anisotropy =    14.9862

     97  H    Isotropic =    32.9571   Anisotropy =    12.4647

     98  H    Isotropic =    32.8882   Anisotropy =     9.5773

     99  H    Isotropic =    31.2625   Anisotropy =    12.6579

    100  H    Isotropic =    31.0465   Anisotropy =    13.5978

    101  H    Isotropic =    31.7222   Anisotropy =    13.6665

    102  H    Isotropic =    30.2755   Anisotropy =    10.9052

    103  H    Isotropic =    31.7056   Anisotropy =    14.6371

    104  H    Isotropic =    31.1474   Anisotropy =    13.8174

    105  H    Isotropic =    30.6895   Anisotropy =    12.7056

    106  H    Isotropic =    30.6178   Anisotropy =     7.2094

    107  H    Isotropic =    30.6682   Anisotropy =    11.4617

    108  H    Isotropic =    31.6032   Anisotropy =     9.5961

    109  H    Isotropic =    31.7794   Anisotropy =    12.3183

    110  H    Isotropic =    31.1699   Anisotropy =    15.0880

 The electronic state is 1-A.
 Alpha  occ. eigenvalues --  -20.31000 -20.28644 -20.24989 -20.22695 -19.92139
 Alpha  occ. eigenvalues --  -15.48138 -15.33927 -15.32341 -15.31040 -11.16906
 Alpha  occ. eigenvalues --  -11.15057 -11.10910 -11.09814 -11.09553 -11.09128
 Alpha  occ. eigenvalues --  -11.08877 -11.08608 -11.08548 -11.08251 -11.07495
 Alpha  occ. eigenvalues --  -11.07189 -11.06764 -11.06740 -11.06223 -11.06172
 Alpha  occ. eigenvalues --  -11.06079 -11.05974 -11.05959 -11.05717 -11.05690
 Alpha  occ. eigenvalues --  -11.05059 -11.04804 -11.04766 -11.04735 -11.04631
 Alpha  occ. eigenvalues --  -11.04567 -11.04496 -11.04411 -11.04302 -11.04264
 Alpha  occ. eigenvalues --  -11.04244 -11.03554 -11.03072 -11.02960 -11.02888
 Alpha  occ. eigenvalues --  -11.02376 -11.02160 -11.02125 -11.02102 -11.02046
 Alpha  occ. eigenvalues --  -11.01928 -11.01872 -11.01854 -11.01749  -1.38225
 Alpha  occ. eigenvalues --   -1.35988  -1.29484  -1.28047  -1.25871  -1.21853
 Alpha  occ. eigenvalues --   -1.20007  -1.19294  -1.10207  -1.10045  -1.09048
 Alpha  occ. eigenvalues --   -1.07639  -1.05804  -1.05257  -1.02696  -1.01122
 Alpha  occ. eigenvalues --   -0.99323  -0.98643  -0.98418  -0.97550  -0.97184
 Alpha  occ. eigenvalues --   -0.96214  -0.95041  -0.94975  -0.94077  -0.92545
 Alpha  occ. eigenvalues --   -0.91998  -0.91733  -0.89378  -0.89166  -0.87802
 Alpha  occ. eigenvalues --   -0.86545  -0.84655  -0.82744  -0.82287  -0.80661
 Alpha  occ. eigenvalues --   -0.80338  -0.79987  -0.78141  -0.78101  -0.77698
 Alpha  occ. eigenvalues --   -0.77056  -0.74489  -0.74202  -0.72948  -0.72348
 Alpha  occ. eigenvalues --   -0.71612  -0.70308  -0.69787  -0.68176  -0.66336
 Alpha  occ. eigenvalues --   -0.65324  -0.64950  -0.64479  -0.63707  -0.62947
 Alpha  occ. eigenvalues --   -0.62542  -0.62152  -0.61610  -0.61258  -0.61103
 Alpha  occ. eigenvalues --   -0.60928  -0.60174  -0.59027  -0.58901  -0.58558
 Alpha  occ. eigenvalues --   -0.58417  -0.58202  -0.57741  -0.57619  -0.57358
 Alpha  occ. eigenvalues --   -0.57128  -0.56764  -0.56089  -0.55671  -0.55470
 Alpha  occ. eigenvalues --   -0.55245  -0.55101  -0.54732  -0.54419  -0.54335
 Alpha  occ. eigenvalues --   -0.54115  -0.53444  -0.53198  -0.52363  -0.52155
 Alpha  occ. eigenvalues --   -0.51715  -0.51426  -0.51209  -0.50768  -0.50181
 Alpha  occ. eigenvalues --   -0.50056  -0.49949  -0.49367  -0.49008  -0.48617
 Alpha  occ. eigenvalues --   -0.48419  -0.48353  -0.47740  -0.47731  -0.46794
 Alpha  occ. eigenvalues --   -0.46505  -0.46264  -0.46019  -0.45706  -0.45229
 Alpha  occ. eigenvalues --   -0.45116  -0.44802  -0.44712  -0.44130  -0.43900
 Alpha  occ. eigenvalues --   -0.43836  -0.43312  -0.43010  -0.42749  -0.42570
 Alpha  occ. eigenvalues --   -0.41960  -0.41783  -0.41411  -0.41312  -0.40956
 Alpha  occ. eigenvalues --   -0.40233  -0.39862  -0.38876  -0.38545  -0.37859
 Alpha  occ. eigenvalues --   -0.37751  -0.37130  -0.36789  -0.35619  -0.34565
 Alpha  occ. eigenvalues --   -0.33691  -0.32519  -0.31632  -0.31285  -0.30753
 Alpha  occ. eigenvalues --   -0.27595  -0.27038  -0.26622  -0.22326  -0.21115
 Alpha  occ. eigenvalues --   -0.16098  -0.15607
 Alpha virt. eigenvalues --    0.26620   0.26750   0.27245   0.28247   0.30040
 Alpha virt. eigenvalues --    0.32618   0.45746   0.47803   0.48189   0.48537
 Alpha virt. eigenvalues --    0.49574   0.49837   0.50184   0.51196   0.51922

 Mulliken charges:
               1
     1  C   -0.076242
     2  C   -0.000042
     3  C   -0.061803
     4  C   -0.089357
     5  C    0.088735
     6  C   -0.014338
     7  N   -0.286989
     8  C    0.018178
     9  C    0.127977
    10  C    0.040160
    11  C   -0.114925
    12  C   -0.105541
    13  C    0.028043
    14  N   -0.291049
    15  C   -0.015341
    16  C   -0.108289
    17  C   -0.102107
    18  C   -0.104246
    19  C   -0.020058
    20  C   -0.110554
    21  C   -0.066747
    22  C    0.319832
    23  O   -0.277578
    24  O   -0.255393
    25  C   -0.055806
    26  C   -0.079419
    27  C   -0.110255
    28  C    0.007841
    29  C   -0.081220
    30  C   -0.065680
    31  C   -0.077077
    32  C    0.081425
    33  C   -0.012101
    34  N   -0.281434
    35  C    0.006089
    36  C    0.123829
    37  C    0.041673
    38  C   -0.100643
    39  C   -0.107613
    40  C    0.039803
    41  N   -0.081287
    42  C   -0.003874
    43  C   -0.097606
    44  C   -0.099203
    45  C   -0.105411
    46  C   -0.004853
    47  C   -0.096575
    48  C   -0.058674
    49  C    0.330377
    50  O   -0.283885
    51  O   -0.257287
    52  C   -0.054830
    53  C   -0.083119
    54  O   -0.462903
    55  H    0.064272
    56  H    0.058261
    57  H    0.059424
    58  H    0.057207
    59  H    0.051366
    60  H    0.054898
    61  H    0.048899
    62  H    0.050989
    63  H    0.054483
    64  H    0.061530
    65  H    0.054692
    66  H    0.050649
    67  H    0.050618
    68  H    0.051991
    69  H    0.055528
    70  H    0.063984
    71  H    0.053923
    72  H    0.053689
    73  H    0.067378
    74  H    0.051998
    75  H    0.065630
    76  H    0.077880
    77  H    0.073805
    78  H    0.072932
    79  H    0.056026
    80  H    0.072101
    81  H    0.076780
    82  H    0.061247
    83  H    0.059882
    84  H    0.056857
    85  H    0.056299
    86  H    0.065474
    87  H    0.055089
    88  H    0.058378
    89  H    0.053882
    90  H    0.052699
    91  H    0.046683
    92  H    0.084266
    93  H    0.057261
    94  H    0.079900
    95  H    0.058625
    96  H    0.058102
    97  H    0.047314
    98  H    0.063631
    99  H    0.098309
   100  H    0.089389
   101  H    0.057978
   102  H    0.096907
   103  H    0.046896
   104  H    0.069212
   105  H    0.073998
   106  H    0.079675
   107  H    0.067839
   108  H    0.065762
   109  H    0.069623
   110  H    0.065281
 Sum of Mulliken charges =  -0.00000

 Dipole moment (field-independent basis, Debye):
    X=             -5.4258    Y=              0.5725    Z=              1.3667  Tot=              5.6245
 Quadrupole moment (field-independent basis, Debye-Ang):
   XX=           -297.2543   YY=           -304.3250   ZZ=           -293.8012
   XY=              3.1118   XZ=              2.8472   YZ=             -4.2482

 Summary of Natural Population Analysis:

                                       Natural Population
                Natural  -----------------------------------------------
    Atom  No    Charge         Core      Valence    Rydberg      Total
 -----------------------------------------------------------------------
      C    1   -0.05778      1.99993     4.05785    0.00000     6.05778
      C    2    0.01346      1.99990     3.98664    0.00000     5.98654
      C    3   -0.03319      1.99994     4.03325    0.00000     6.03319
      C    4   -0.08616      1.99993     4.08623    0.00000     6.08616
      C    5    0.11179      1.99985     3.88836    0.00000     5.88821
      C    6   -0.02543      1.99990     4.02552    0.00000     6.02543
      N    7   -0.27538      1.99998     5.27540    0.00000     7.27538
      C    8    0.01981      1.99996     3.98023    0.00000     5.98019
      C    9    0.17121      1.99996     3.82883    0.00000     5.82879
      C   10    0.07355      1.99993     3.92652    0.00000     5.92645
      C   11   -0.08516      1.99994     4.08523    0.00000     6.08516
      C   12   -0.07360      1.99996     4.07364    0.00000     6.07360
      C   13    0.05048      1.99998     3.94955    0.00000     5.94952
      N   14   -0.27916      1.99999     5.27917    0.00000     7.27916
      C   15    0.03824      1.99994     3.96182    0.00000     5.96176
      C   16   -0.07467      1.99997     4.07471    0.00000     6.07467
      C   17   -0.06846      1.99996     4.06850    0.00000     6.06846
      C   18   -0.07359      1.99995     4.07365    0.00000     6.07359
      C   19    0.03292      1.99994     3.96713    0.00000     5.96708
      C   20   -0.07379      1.99992     4.07387    0.00000     6.07379
      C   21   -0.08479      1.99994     4.08484    0.00000     6.08479
      C   22    0.40333      1.99991     3.59676    0.00000     5.59667
      O   23   -0.31177      1.99999     6.31179    0.00000     8.31177
      O   24   -0.26700      1.99999     6.26701    0.00000     8.26700
      C   25    0.03461      1.99984     3.96555    0.00000     5.96539
      C   26   -0.01669      1.99992     4.01677    0.00000     6.01669
      C   27   -0.08780      1.99995     4.08785    0.00000     6.08780
      C   28    0.02823      1.99990     3.97187    0.00000     5.97177
      C   29   -0.06778      1.99992     4.06786    0.00000     6.06778
      C   30   -0.04182      1.99994     4.04188    0.00000     6.04182
      C   31   -0.06726      1.99993     4.06733    0.00000     6.06726
      C   32    0.10020      1.99985     3.89995    0.00000     5.89980
      C   33   -0.01724      1.99990     4.01734    0.00000     6.01724
      N   34   -0.27277      1.99998     5.27279    0.00000     7.27277
      C   35   -0.00081      1.99996     4.00085    0.00000     6.00081
      C   36    0.16895      1.99996     3.83110    0.00000     5.83105
      C   37    0.07252      1.99991     3.92757    0.00000     5.92748
      C   38   -0.06567      1.99991     4.06576    0.00000     6.06567
      C   39   -0.07931      1.99996     4.07935    0.00000     6.07931
      C   40    0.05788      1.99998     3.94214    0.00000     5.94212
      N   41    0.03300      1.99999     4.96701    0.00000     6.96700
      C   42    0.04964      1.99992     3.95044    0.00000     5.95036
      C   43   -0.06418      1.99995     4.06423    0.00000     6.06418
      C   44   -0.06245      1.99995     4.06251    0.00000     6.06245
      C   45   -0.07371      1.99993     4.07378    0.00000     6.07371
      C   46    0.04604      1.99993     3.95402    0.00000     5.95396
      C   47   -0.05826      1.99991     4.05836    0.00000     6.05826
      C   48   -0.07267      1.99993     4.07274    0.00000     6.07267
      C   49    0.41452      1.99990     3.58558    0.00000     5.58548
      O   50   -0.32003      1.99998     6.32004    0.00000     8.32003
      O   51   -0.27023      1.99999     6.27024    0.00000     8.27023
      C   52    0.03550      1.99984     3.96466    0.00000     5.96450
      C   53   -0.02140      1.99992     4.02147    0.00000     6.02140
      O   54   -0.51543      2.00000     6.51543    0.00000     8.51543
      H   55    0.03851      0.00000     0.96149    0.00000     0.96149
      H   56    0.03085      0.00000     0.96915    0.00000     0.96915
      H   57    0.03520      0.00000     0.96480    0.00000     0.96480
      H   58    0.02595      0.00000     0.97405    0.00000     0.97405
      H   59    0.02919      0.00000     0.97081    0.00000     0.97081
      H   60    0.03195      0.00000     0.96805    0.00000     0.96805
      H   61    0.02784      0.00000     0.97216    0.00000     0.97216
      H   62    0.02985      0.00000     0.97015    0.00000     0.97015
      H   63    0.02737      0.00000     0.97263    0.00000     0.97263
      H   64    0.03567      0.00000     0.96433    0.00000     0.96433
      H   65    0.03476      0.00000     0.96524    0.00000     0.96524
      H   66    0.03002      0.00000     0.96998    0.00000     0.96998
      H   67    0.02979      0.00000     0.97021    0.00000     0.97021
      H   68    0.03106      0.00000     0.96894    0.00000     0.96894
      H   69    0.03483      0.00000     0.96517    0.00000     0.96517
      H   70    0.04115      0.00000     0.95885    0.00000     0.95885
      H   71    0.02810      0.00000     0.97190    0.00000     0.97190
      H   72    0.02448      0.00000     0.97552    0.00000     0.97552
      H   73    0.04217      0.00000     0.95783    0.00000     0.95783
      H   74    0.02981      0.00000     0.97019    0.00000     0.97019
      H   75    0.04272      0.00000     0.95728    0.00000     0.95728
      H   76    0.04674      0.00000     0.95326    0.00000     0.95326
      H   77    0.04239      0.00000     0.95761    0.00000     0.95761
      H   78    0.04136      0.00000     0.95864    0.00000     0.95864
      H   79    0.03058      0.00000     0.96942    0.00000     0.96942
      H   80    0.04769      0.00000     0.95231    0.00000     0.95231
      H   81    0.05231      0.00000     0.94769    0.00000     0.94769
      H   82    0.04250      0.00000     0.95750    0.00000     0.95750
      H   83    0.04075      0.00000     0.95925    0.00000     0.95925
      H   84    0.03166      0.00000     0.96834    0.00000     0.96834
      H   85    0.02913      0.00000     0.97087    0.00000     0.97087
      H   86    0.03991      0.00000     0.96009    0.00000     0.96009
      H   87    0.02263      0.00000     0.97737    0.00000     0.97737
      H   88    0.03322      0.00000     0.96678    0.00000     0.96678
      H   89    0.02960      0.00000     0.97040    0.00000     0.97040
      H   90    0.03235      0.00000     0.96765    0.00000     0.96765
      H   91    0.02611      0.00000     0.97389    0.00000     0.97389
      H   92    0.05270      0.00000     0.94730    0.00000     0.94730
      H   93    0.02657      0.00000     0.97343    0.00000     0.97343
      H   94    0.05539      0.00000     0.94461    0.00000     0.94461
      H   95    0.03690      0.00000     0.96310    0.00000     0.96310
      H   96    0.03588      0.00000     0.96412    0.00000     0.96412
      H   97    0.02523      0.00000     0.97477    0.00000     0.97477
      H   98    0.04130      0.00000     0.95870    0.00000     0.95870
      H   99    0.07022      0.00000     0.92978    0.00000     0.92978
      H  100    0.05791      0.00000     0.94209    0.00000     0.94209
      H  101    0.02753      0.00000     0.97247    0.00000     0.97247
      H  102    0.06795      0.00000     0.93205    0.00000     0.93205
      H  103    0.02306      0.00000     0.97694    0.00000     0.97694
      H  104    0.04485      0.00000     0.95515    0.00000     0.95515
      H  105    0.04324      0.00000     0.95676    0.00000     0.95676
      H  106    0.04783      0.00000     0.95217    0.00000     0.95217
      H  107    0.03658      0.00000     0.96342    0.00000     0.96342
      H  108    0.03922      0.00000     0.96078    0.00000     0.96078
      H  109    0.04532      0.00000     0.95468    0.00000     0.95468
      H  110    0.04169      0.00000     0.95831    0.00000     0.95831
 =======================================================================
   * Total *   -0.00000    107.99662   286.00338    0.00000   394.00000

 Normal termination of Gaussian 16 at Thu May 30 09:41:30 2024.
