 Gaussian 16, Revision B.01,
 Gaussian 16:  ES64L-G16RevB.01 20-Dec-2017

 ----------------------------------------------
 # nmr=giao hf/sto-3g pop=nbo geom=connectivity
 ----------------------------------------------

 -----------------
 Pleiokomenine_C_2
 -----------------
 Symbolic Z-matrix:
 Charge =  0 Multiplicity = 1

                         Standard orientation:
 ---------------------------------------------------------------------
 Center     Atomic      Atomic             Coordinates (Angstroms)
 Number     Number       Type             X           Y           Z
 ---------------------------------------------------------------------
      1          6           0        1.790103    1.900278   -0.677906
      2          6           0        1.625591    3.284673   -0.821396
      3          6           0        2.759710    4.117967   -0.715928
      4          6           0        4.031237    3.594090   -0.435012
      5          6           0        4.170808    2.229698   -0.251607
      6          6           0        3.049672    1.398246   -0.392282
      7          7           0        5.340957    1.498883    0.086816
      8          6           0        3.480173   -0.038248   -0.242787
      9          6           0        4.778822    0.227140    0.614863
     10          6           0        2.581141   -1.042234    0.494620
     11          6           0        4.356791    0.436816    2.135195
     12          6           0        3.681401   -0.817208    2.704238
     13          6           0        3.433365   -1.817285    1.557991
     14          7           0        1.977135   -1.852838   -0.568159
     15          6           0        1.361982   -3.093588   -0.113967
     16          6           0        2.192676   -3.908535    0.876329
     17          6           0        2.658383   -3.047686    2.050116
     18          6           0        3.602138   -0.607028   -1.677150
     19          6           0        2.951456   -1.984275   -1.641587
     20          6           0        4.858318   -2.228060    1.050815
     21          6           0        5.713387   -0.994590    0.647871
     22          6           0        6.550036   -1.255123   -0.592180
     23          8           0        6.370000   -2.173480   -1.382494
     24          8           0        7.584269   -0.371299   -0.669965
     25          6           0        8.403352   -0.529450   -1.828032
     26          6           0        6.378152    2.221282    0.806982
     27          6           0        0.273253    3.881890   -1.157691
     28          6           0       -0.878303    3.312215   -0.353356
     29          6           0       -1.605206    2.218893   -0.847110
     30          6           0       -1.163246    3.816667    0.934384
     31          6           0       -2.167881    3.254081    1.732433
     32          6           0       -2.877114    2.173212    1.243820
     33          6           0       -2.568944    1.649163   -0.032036
     34          7           0       -3.943672    1.463922    1.861717
     35          6           0       -3.360236    0.371172   -0.204024
     36          6           0       -4.572452    0.791801    0.697371
     37          6           0       -3.921072   -0.078561   -1.541267
     38          6           0       -5.447607    1.904715   -0.081473
     39          6           0       -5.846253    1.440788   -1.485712
     40          6           0       -5.452542   -0.035808   -1.654581
     41          7           0       -3.403350   -1.491098   -1.753885
     42          6           0       -3.571943   -1.829290   -3.197229
     43          6           0       -5.080026   -1.826453   -3.521251
     44          6           0       -5.834224   -0.556495   -3.062316
     45          6           0       -2.328905   -0.740119    0.154549
     46          6           0       -2.028871   -1.403469   -1.202825
     47          6           0       -6.165318   -0.778856   -0.471883
     48          6           0       -5.600748   -0.339751    0.928494
     49          6           0       -5.242857   -1.538379    1.792804
     50          8           0       -5.885321   -2.584261    1.794723
     51          8           0       -4.252334   -1.265494    2.680488
     52          6           0       -3.912855   -2.355333    3.536225
     53          6           0       -4.735264    2.154488    2.862433
     54          8           0       -4.035441   -2.463837   -1.023010
     55          1           0        0.960480    1.210712   -0.792830
     56          1           0        2.659606    5.192687   -0.854104
     57          1           0        4.881227    4.262369   -0.360302
     58          1           0        1.759281   -0.526815    1.010333
     59          1           0        5.234144    0.676135    2.749661
     60          1           0        3.678080    1.290680    2.254465
     61          1           0        4.315650   -1.265244    3.479574
     62          1           0        2.743116   -0.537359    3.199152
     63          1           0        0.414859   -2.832186    0.375251
     64          1           0        1.084605   -3.718565   -0.971425
     65          1           0        1.586709   -4.738844    1.257794
     66          1           0        3.050421   -4.360726    0.366907
     67          1           0        1.778818   -2.729095    2.624903
     68          1           0        3.273689   -3.649672    2.729282
     69          1           0        4.617339   -0.626207   -2.070885
     70          1           0        3.031545    0.000310   -2.395010
     71          1           0        2.462305   -2.206928   -2.596009
     72          1           0        3.687641   -2.769673   -1.463119
     73          1           0        4.796701   -2.964532    0.249418
     74          1           0        5.387340   -2.752773    1.859474
     75          1           0        6.457098   -0.858593    1.448185
     76          1           0        8.909696   -1.499362   -1.807627
     77          1           0        9.162065    0.257947   -1.816056
     78          1           0        7.807253   -0.420831   -2.739657
     79          1           0        5.981454    2.747672    1.682429
     80          1           0        6.862126    2.951044    0.149115
     81          1           0        7.158532    1.537003    1.153421
     82          1           0        0.086103    3.736999   -2.229680
     83          1           0        0.292141    4.968752   -1.003567
     84          1           0       -1.364941    1.791098   -1.814804
     85          1           0       -0.581983    4.647197    1.330565
     86          1           0       -2.362551    3.658450    2.718761
     87          1           0       -3.465594    0.519225   -2.344872
     88          1           0       -4.937453    2.871904   -0.166436
     89          1           0       -6.355674    2.124632    0.496979
     90          1           0       -6.923162    1.585783   -1.636750
     91          1           0       -5.343391    2.065859   -2.234707
     92          1           0       -3.128573   -2.819028   -3.348648
     93          1           0       -3.019947   -1.086405   -3.782054
     94          1           0       -5.552393   -2.694746   -3.045081
     95          1           0       -5.217217   -1.959788   -4.600569
     96          1           0       -6.915024   -0.732223   -3.122053
     97          1           0       -5.612829    0.227953   -3.798899
     98          1           0       -1.397895   -0.390138    0.615800
     99          1           0       -2.749035   -1.484593    0.830710
    100          1           0       -1.611967   -2.411016   -1.121631
    101          1           0       -1.430839   -0.778380   -1.873237
    102          1           0       -7.234652   -0.521756   -0.497433
    103          1           0       -6.161416   -1.863258   -0.603984
    104          1           0       -6.444936    0.093550    1.487234
    105          1           0       -3.063317   -2.048952    4.152737
    106          1           0       -4.751189   -2.596743    4.196905
    107          1           0       -3.614833   -3.230187    2.949621
    108          1           0       -4.128070    2.380919    3.745321
    109          1           0       -5.560450    1.520361    3.201110
    110          1           0       -5.158045    3.089544    2.479277
 ---------------------------------------------------------------------

 SCF Done:  E(RHF) =  -2300.19871017     A.U. after   16 cycles

      1  C    Isotropic =   125.2087   Anisotropy =   152.1239

      2  C    Isotropic =   120.5393   Anisotropy =   156.1342

      3  C    Isotropic =   119.1227   Anisotropy =   149.2545

      4  C    Isotropic =   133.6424   Anisotropy =   142.0290

      5  C    Isotropic =   109.2617   Anisotropy =   126.5678

      6  C    Isotropic =   117.7087   Anisotropy =   138.6041

      7  N    Isotropic =   273.7796   Anisotropy =    81.7422

      8  C    Isotropic =   196.2173   Anisotropy =    14.6029

      9  C    Isotropic =   181.0898   Anisotropy =    45.1871

     10  C    Isotropic =   190.1599   Anisotropy =    28.9185

     11  C    Isotropic =   213.8519   Anisotropy =    18.5937

     12  C    Isotropic =   212.9709   Anisotropy =    20.5154

     13  C    Isotropic =   213.7364   Anisotropy =     7.8777

     14  N    Isotropic =   302.0910   Anisotropy =    52.2236

     15  C    Isotropic =   205.2553   Anisotropy =    32.0170

     16  C    Isotropic =   224.3860   Anisotropy =     8.7094

     17  C    Isotropic =   215.3932   Anisotropy =    19.0292

     18  C    Isotropic =   210.6674   Anisotropy =    36.3565

     19  C    Isotropic =   199.8766   Anisotropy =    42.6745

     20  C    Isotropic =   212.1653   Anisotropy =    22.1002

     21  C    Isotropic =   209.0853   Anisotropy =    10.5187

     22  C    Isotropic =    96.4050   Anisotropy =    98.6430

     23  O    Isotropic =  -134.8663   Anisotropy =   887.8305

     24  O    Isotropic =   283.8323   Anisotropy =   140.1451

     25  C    Isotropic =   197.3621   Anisotropy =    57.6849

     26  C    Isotropic =   209.9111   Anisotropy =    41.8283

     27  C    Isotropic =   206.6490   Anisotropy =    19.2094

     28  C    Isotropic =   119.3027   Anisotropy =   161.5172

     29  C    Isotropic =   126.5925   Anisotropy =   147.6600

     30  C    Isotropic =   118.9453   Anisotropy =   156.1035

     31  C    Isotropic =   133.6626   Anisotropy =   144.4417

     32  C    Isotropic =   108.1451   Anisotropy =   131.1981

     33  C    Isotropic =   117.0674   Anisotropy =   143.7279

     34  N    Isotropic =   271.9190   Anisotropy =    83.8673

     35  C    Isotropic =   200.5552   Anisotropy =    12.8879

     36  C    Isotropic =   178.7495   Anisotropy =    38.1901

     37  C    Isotropic =   183.7266   Anisotropy =    42.8849

     38  C    Isotropic =   210.8072   Anisotropy =    24.1804

     39  C    Isotropic =   212.5938   Anisotropy =    20.2498

     40  C    Isotropic =   211.3616   Anisotropy =    11.9380

     41  N    Isotropic =   235.2216   Anisotropy =    22.5378

     42  C    Isotropic =   193.7773   Anisotropy =    50.2806

     43  C    Isotropic =   219.1922   Anisotropy =    11.4136

     44  C    Isotropic =   214.7145   Anisotropy =    22.7067

     45  C    Isotropic =   206.1900   Anisotropy =    36.1793

     46  C    Isotropic =   190.3792   Anisotropy =    57.0793

     47  C    Isotropic =   211.0393   Anisotropy =    24.2072

     48  C    Isotropic =   207.5593   Anisotropy =    11.4058

     49  C    Isotropic =    98.4712   Anisotropy =   103.6133

     50  O    Isotropic =  -132.7757   Anisotropy =   875.2164

     51  O    Isotropic =   286.4756   Anisotropy =   131.7675

     52  C    Isotropic =   197.5641   Anisotropy =    57.0936

     53  C    Isotropic =   210.7436   Anisotropy =    42.1486

     54  O    Isotropic =    79.0434   Anisotropy =   397.1616

     55  H    Isotropic =    26.3998   Anisotropy =    17.1971

     56  H    Isotropic =    25.6947   Anisotropy =     6.6842

     57  H    Isotropic =    26.5408   Anisotropy =     7.8812

     58  H    Isotropic =    31.9825   Anisotropy =    12.5541

     59  H    Isotropic =    32.2678   Anisotropy =    13.8373

     60  H    Isotropic =    33.1496   Anisotropy =     8.6496

     61  H    Isotropic =    32.4548   Anisotropy =    15.1612

     62  H    Isotropic =    32.7827   Anisotropy =    12.7699

     63  H    Isotropic =    32.0159   Anisotropy =    17.6443

     64  H    Isotropic =    31.9108   Anisotropy =    13.3677

     65  H    Isotropic =    32.6563   Anisotropy =    16.8308

     66  H    Isotropic =    32.6034   Anisotropy =    11.7124

     67  H    Isotropic =    32.7599   Anisotropy =    12.4148

     68  H    Isotropic =    32.5484   Anisotropy =    14.9317

     69  H    Isotropic =    32.9606   Anisotropy =    12.0776

     70  H    Isotropic =    32.4751   Anisotropy =    10.5781

     71  H    Isotropic =    31.9392   Anisotropy =    14.5805

     72  H    Isotropic =    31.9798   Anisotropy =     9.8800

     73  H    Isotropic =    31.4300   Anisotropy =     9.3398

     74  H    Isotropic =    32.2684   Anisotropy =    14.9414

     75  H    Isotropic =    31.2477   Anisotropy =    12.8770

     76  H    Isotropic =    30.5776   Anisotropy =    11.7484

     77  H    Isotropic =    30.5427   Anisotropy =    12.2334

     78  H    Isotropic =    30.6456   Anisotropy =     7.7366

     79  H    Isotropic =    31.9181   Anisotropy =    11.5886

     80  H    Isotropic =    30.7366   Anisotropy =    14.7229

     81  H    Isotropic =    30.9118   Anisotropy =    11.0165

     82  H    Isotropic =    30.2440   Anisotropy =     8.6928

     83  H    Isotropic =    29.8248   Anisotropy =    12.5536

     84  H    Isotropic =    25.9314   Anisotropy =    11.8571

     85  H    Isotropic =    25.9351   Anisotropy =     6.8872

     86  H    Isotropic =    26.4830   Anisotropy =     7.5201

     87  H    Isotropic =    31.6055   Anisotropy =     5.6908

     88  H    Isotropic =    32.9633   Anisotropy =     8.8875

     89  H    Isotropic =    32.0237   Anisotropy =    13.6252

     90  H    Isotropic =    32.1246   Anisotropy =    15.9859

     91  H    Isotropic =    32.7935   Anisotropy =    12.0184

     92  H    Isotropic =    30.7694   Anisotropy =    13.4067

     93  H    Isotropic =    31.8890   Anisotropy =    10.2852

     94  H    Isotropic =    31.0358   Anisotropy =    12.9151

     95  H    Isotropic =    32.2616   Anisotropy =    17.6237

     96  H    Isotropic =    32.0461   Anisotropy =    15.4688

     97  H    Isotropic =    32.5889   Anisotropy =    12.6796

     98  H    Isotropic =    32.2366   Anisotropy =    14.1874

     99  H    Isotropic =    30.4566   Anisotropy =    11.3150

    100  H    Isotropic =    30.5563   Anisotropy =    16.1335

    101  H    Isotropic =    31.1457   Anisotropy =    12.6938

    102  H    Isotropic =    31.6783   Anisotropy =    15.1936

    103  H    Isotropic =    29.9872   Anisotropy =    11.2482

    104  H    Isotropic =    31.3231   Anisotropy =    13.0356

    105  H    Isotropic =    30.6188   Anisotropy =     9.9115

    106  H    Isotropic =    30.5394   Anisotropy =    12.7376

    107  H    Isotropic =    30.4597   Anisotropy =     8.2155

    108  H    Isotropic =    30.6609   Anisotropy =    14.1477

    109  H    Isotropic =    31.2491   Anisotropy =    11.5890

    110  H    Isotropic =    31.8564   Anisotropy =    12.5348

 The electronic state is 1-A.
 Alpha  occ. eigenvalues --  -20.30600 -20.29021 -20.24579 -20.22200 -19.91836
 Alpha  occ. eigenvalues --  -15.48038 -15.33527 -15.33497 -15.30631 -11.16485
 Alpha  occ. eigenvalues --  -11.14657 -11.10534 -11.09537 -11.09374 -11.09374
 Alpha  occ. eigenvalues --  -11.09186 -11.08953 -11.08646 -11.08085 -11.07897
 Alpha  occ. eigenvalues --  -11.07017 -11.06791 -11.06432 -11.06375 -11.06209
 Alpha  occ. eigenvalues --  -11.06154 -11.05863 -11.05643 -11.05595 -11.05531
 Alpha  occ. eigenvalues --  -11.05290 -11.05040 -11.04700 -11.04665 -11.04578
 Alpha  occ. eigenvalues --  -11.04342 -11.04140 -11.04073 -11.03876 -11.03837
 Alpha  occ. eigenvalues --  -11.03827 -11.03705 -11.03693 -11.03096 -11.02257
 Alpha  occ. eigenvalues --  -11.02225 -11.02145 -11.02003 -11.01921 -11.01724
 Alpha  occ. eigenvalues --  -11.01664 -11.01580 -11.01395 -11.01293  -1.37821
 Alpha  occ. eigenvalues --   -1.36088  -1.29514  -1.27625  -1.25370  -1.21391
 Alpha  occ. eigenvalues --   -1.20840  -1.18830  -1.10473  -1.09634  -1.08945
 Alpha  occ. eigenvalues --   -1.07518  -1.05729  -1.04840  -1.02670  -1.00777
 Alpha  occ. eigenvalues --   -0.99108  -0.98726  -0.98381  -0.97376  -0.96754
 Alpha  occ. eigenvalues --   -0.96445  -0.95091  -0.94475  -0.94117  -0.92270
 Alpha  occ. eigenvalues --   -0.91603  -0.91458  -0.90225  -0.89479  -0.87930
 Alpha  occ. eigenvalues --   -0.86369  -0.84776  -0.82844  -0.81871  -0.80895
 Alpha  occ. eigenvalues --   -0.80390  -0.79570  -0.78179  -0.77643  -0.77439
 Alpha  occ. eigenvalues --   -0.77229  -0.74418  -0.74124  -0.72737  -0.72201
 Alpha  occ. eigenvalues --   -0.71194  -0.70247  -0.69335  -0.68502  -0.65894
 Alpha  occ. eigenvalues --   -0.65249  -0.64832  -0.64748  -0.63579  -0.63184
 Alpha  occ. eigenvalues --   -0.62351  -0.62162  -0.61544  -0.61225  -0.61112
 Alpha  occ. eigenvalues --   -0.60597  -0.59653  -0.59393  -0.58678  -0.58482
 Alpha  occ. eigenvalues --   -0.58224  -0.58039  -0.57767  -0.57517  -0.57342
 Alpha  occ. eigenvalues --   -0.56793  -0.56690  -0.56572  -0.55731  -0.55240
 Alpha  occ. eigenvalues --   -0.54845  -0.54705  -0.54652  -0.54523  -0.54461
 Alpha  occ. eigenvalues --   -0.54008  -0.53771  -0.53273  -0.52468  -0.51775
 Alpha  occ. eigenvalues --   -0.51664  -0.51006  -0.50935  -0.50603  -0.50351
 Alpha  occ. eigenvalues --   -0.49965  -0.49533  -0.49395  -0.49144  -0.48546
 Alpha  occ. eigenvalues --   -0.48225  -0.48005  -0.47665  -0.47333  -0.47129
 Alpha  occ. eigenvalues --   -0.46489  -0.46069  -0.45876  -0.45561  -0.45080
 Alpha  occ. eigenvalues --   -0.44801  -0.44753  -0.44365  -0.44265  -0.43685
 Alpha  occ. eigenvalues --   -0.43444  -0.43335  -0.43113  -0.42529  -0.42482
 Alpha  occ. eigenvalues --   -0.42248  -0.41934  -0.41431  -0.41091  -0.40687
 Alpha  occ. eigenvalues --   -0.40420  -0.39842  -0.38718  -0.38390  -0.38116
 Alpha  occ. eigenvalues --   -0.37351  -0.37134  -0.36446  -0.35465  -0.34173
 Alpha  occ. eigenvalues --   -0.33292  -0.33045  -0.32053  -0.31268  -0.30784
 Alpha  occ. eigenvalues --   -0.27244  -0.27149  -0.26204  -0.21134  -0.20435
 Alpha  occ. eigenvalues --   -0.15786  -0.15289
 Alpha virt. eigenvalues --    0.26880   0.26986   0.27614   0.28745   0.30485
 Alpha virt. eigenvalues --    0.32944   0.45690   0.48178   0.48472   0.49022
 Alpha virt. eigenvalues --    0.49377   0.50196   0.50330   0.51868   0.52259

 Mulliken charges:
               1
     1  C   -0.074936
     2  C   -0.000658
     3  C   -0.062034
     4  C   -0.090119
     5  C    0.088958
     6  C   -0.012576
     7  N   -0.286093
     8  C    0.017765
     9  C    0.127880
    10  C    0.039870
    11  C   -0.114939
    12  C   -0.105548
    13  C    0.027904
    14  N   -0.291482
    15  C   -0.016293
    16  C   -0.108216
    17  C   -0.102109
    18  C   -0.105518
    19  C   -0.020100
    20  C   -0.110468
    21  C   -0.066456
    22  C    0.319564
    23  O   -0.276927
    24  O   -0.255440
    25  C   -0.055787
    26  C   -0.079220
    27  C   -0.109673
    28  C    0.001420
    29  C   -0.079739
    30  C   -0.061951
    31  C   -0.090027
    32  C    0.093850
    33  C   -0.013975
    34  N   -0.279368
    35  C    0.015584
    36  C    0.135127
    37  C    0.039795
    38  C   -0.116082
    39  C   -0.105434
    40  C    0.040641
    41  N   -0.081073
    42  C   -0.002922
    43  C   -0.097148
    44  C   -0.099029
    45  C   -0.095853
    46  C   -0.003301
    47  C   -0.098523
    48  C   -0.059080
    49  C    0.325191
    50  O   -0.273483
    51  O   -0.255583
    52  C   -0.055636
    53  C   -0.077487
    54  O   -0.461906
    55  H    0.065614
    56  H    0.055070
    57  H    0.057947
    58  H    0.056824
    59  H    0.050659
    60  H    0.055027
    61  H    0.048294
    62  H    0.051303
    63  H    0.054709
    64  H    0.060846
    65  H    0.055408
    66  H    0.050594
    67  H    0.050894
    68  H    0.051649
    69  H    0.064015
    70  H    0.061746
    71  H    0.055678
    72  H    0.051971
    73  H    0.067804
    74  H    0.051518
    75  H    0.064902
    76  H    0.072370
    77  H    0.077160
    78  H    0.074601
    79  H    0.055432
    80  H    0.071657
    81  H    0.076479
    82  H    0.058311
    83  H    0.058248
    84  H    0.053579
    85  H    0.057261
    86  H    0.060007
    87  H    0.053805
    88  H    0.054298
    89  H    0.049451
    90  H    0.053196
    91  H    0.046897
    92  H    0.085032
    93  H    0.055256
    94  H    0.081932
    95  H    0.057644
    96  H    0.058722
    97  H    0.046423
    98  H    0.067302
    99  H    0.091538
   100  H    0.091840
   101  H    0.059221
   102  H    0.045118
   103  H    0.101124
   104  H    0.061431
   105  H    0.073504
   106  H    0.070113
   107  H    0.076499
   108  H    0.073564
   109  H    0.072038
   110  H    0.055117
 Sum of Mulliken charges =  -0.00000

 Dipole moment (field-independent basis, Debye):
    X=              2.5900    Y=              3.3203    Z=             -0.2228  Tot=              4.2169
 Quadrupole moment (field-independent basis, Debye-Ang):
   XX=           -293.0782   YY=           -310.5920   ZZ=           -285.9870
   XY=            -20.2951   XZ=             11.1612   YZ=             -0.2020

 Summary of Natural Population Analysis:

                                       Natural Population
                Natural  -----------------------------------------------
    Atom  No    Charge         Core      Valence    Rydberg      Total
 -----------------------------------------------------------------------
      C    1   -0.05658      1.99993     4.05665    0.00000     6.05658
      C    2    0.01357      1.99990     3.98653    0.00000     5.98643
      C    3   -0.03362      1.99994     4.03367    0.00000     6.03362
      C    4   -0.08705      1.99993     4.08712    0.00000     6.08705
      C    5    0.11201      1.99985     3.88814    0.00000     5.88799
      C    6   -0.02426      1.99990     4.02436    0.00000     6.02426
      N    7   -0.27435      1.99998     5.27437    0.00000     7.27435
      C    8    0.01930      1.99996     3.98074    0.00000     5.98070
      C    9    0.17154      1.99996     3.82850    0.00000     5.82846
      C   10    0.07367      1.99993     3.92640    0.00000     5.92633
      C   11   -0.08515      1.99994     4.08521    0.00000     6.08515
      C   12   -0.07383      1.99996     4.07388    0.00000     6.07383
      C   13    0.05029      1.99998     3.94974    0.00000     5.94971
      N   14   -0.27944      1.99999     5.27945    0.00000     7.27944
      C   15    0.03743      1.99993     3.96264    0.00000     5.96257
      C   16   -0.07472      1.99997     4.07475    0.00000     6.07472
      C   17   -0.06853      1.99996     4.06857    0.00000     6.06853
      C   18   -0.07548      1.99995     4.07553    0.00000     6.07548
      C   19    0.03321      1.99994     3.96685    0.00000     5.96679
      C   20   -0.07359      1.99992     4.07367    0.00000     6.07359
      C   21   -0.08441      1.99994     4.08446    0.00000     6.08441
      C   22    0.40288      1.99991     3.59721    0.00000     5.59712
      O   23   -0.31108      1.99999     6.31110    0.00000     8.31108
      O   24   -0.26703      1.99999     6.26704    0.00000     8.26703
      C   25    0.03461      1.99984     3.96555    0.00000     5.96539
      C   26   -0.01665      1.99992     4.01673    0.00000     6.01665
      C   27   -0.08621      1.99995     4.08625    0.00000     6.08621
      C   28    0.01561      1.99991     3.98449    0.00000     5.98439
      C   29   -0.06389      1.99992     4.06396    0.00000     6.06389
      C   30   -0.03351      1.99994     4.03357    0.00000     6.03351
      C   31   -0.08804      1.99993     4.08811    0.00000     6.08804
      C   32    0.11764      1.99985     3.88251    0.00000     5.88236
      C   33   -0.02209      1.99990     4.02220    0.00000     6.02209
      N   34   -0.26942      1.99998     5.26944    0.00000     7.26942
      C   35    0.01128      1.99996     3.98877    0.00000     5.98872
      C   36    0.17935      1.99996     3.82069    0.00000     5.82065
      C   37    0.06866      1.99991     3.93143    0.00000     5.93134
      C   38   -0.08442      1.99993     4.08449    0.00000     6.08442
      C   39   -0.07471      1.99996     4.07475    0.00000     6.07471
      C   40    0.05984      1.99998     3.94018    0.00000     5.94016
      N   41    0.03353      1.99999     4.96649    0.00000     6.96647
      C   42    0.05030      1.99992     3.94978    0.00000     5.94970
      C   43   -0.06340      1.99995     4.06346    0.00000     6.06340
      C   44   -0.06235      1.99994     4.06241    0.00000     6.06235
      C   45   -0.06418      1.99993     4.06425    0.00000     6.06418
      C   46    0.04712      1.99993     3.95295    0.00000     5.95288
      C   47   -0.06063      1.99991     4.06072    0.00000     6.06063
      C   48   -0.07444      1.99994     4.07450    0.00000     6.07444
      C   49    0.40566      1.99991     3.59442    0.00000     5.59434
      O   50   -0.30909      1.99999     6.30911    0.00000     8.30909
      O   51   -0.26672      1.99999     6.26673    0.00000     8.26672
      C   52    0.03481      1.99984     3.96535    0.00000     5.96519
      C   53   -0.01546      1.99993     4.01554    0.00000     6.01546
      O   54   -0.51477      2.00000     6.51477    0.00000     8.51477
      H   55    0.03921      0.00000     0.96079    0.00000     0.96079
      H   56    0.02781      0.00000     0.97219    0.00000     0.97219
      H   57    0.03381      0.00000     0.96619    0.00000     0.96619
      H   58    0.02548      0.00000     0.97452    0.00000     0.97452
      H   59    0.02852      0.00000     0.97148    0.00000     0.97148
      H   60    0.03205      0.00000     0.96795    0.00000     0.96795
      H   61    0.02734      0.00000     0.97266    0.00000     0.97266
      H   62    0.03018      0.00000     0.96982    0.00000     0.96982
      H   63    0.02757      0.00000     0.97243    0.00000     0.97243
      H   64    0.03500      0.00000     0.96500    0.00000     0.96500
      H   65    0.03545      0.00000     0.96455    0.00000     0.96455
      H   66    0.03002      0.00000     0.96998    0.00000     0.96998
      H   67    0.03007      0.00000     0.96993    0.00000     0.96993
      H   68    0.03077      0.00000     0.96923    0.00000     0.96923
      H   69    0.04131      0.00000     0.95869    0.00000     0.95869
      H   70    0.04061      0.00000     0.95939    0.00000     0.95939
      H   71    0.02958      0.00000     0.97042    0.00000     0.97042
      H   72    0.02294      0.00000     0.97706    0.00000     0.97706
      H   73    0.04250      0.00000     0.95750    0.00000     0.95750
      H   74    0.02931      0.00000     0.97069    0.00000     0.97069
      H   75    0.04204      0.00000     0.95796    0.00000     0.95796
      H   76    0.04082      0.00000     0.95918    0.00000     0.95918
      H   77    0.04611      0.00000     0.95389    0.00000     0.95389
      H   78    0.04312      0.00000     0.95688    0.00000     0.95688
      H   79    0.03004      0.00000     0.96996    0.00000     0.96996
      H   80    0.04732      0.00000     0.95268    0.00000     0.95268
      H   81    0.05207      0.00000     0.94793    0.00000     0.94793
      H   82    0.03975      0.00000     0.96025    0.00000     0.96025
      H   83    0.03919      0.00000     0.96081    0.00000     0.96081
      H   84    0.02917      0.00000     0.97083    0.00000     0.97083
      H   85    0.02991      0.00000     0.97009    0.00000     0.97009
      H   86    0.03593      0.00000     0.96407    0.00000     0.96407
      H   87    0.02176      0.00000     0.97824    0.00000     0.97824
      H   88    0.03068      0.00000     0.96932    0.00000     0.96932
      H   89    0.02673      0.00000     0.97327    0.00000     0.97327
      H   90    0.03229      0.00000     0.96771    0.00000     0.96771
      H   91    0.02596      0.00000     0.97404    0.00000     0.97404
      H   92    0.05345      0.00000     0.94655    0.00000     0.94655
      H   93    0.02471      0.00000     0.97529    0.00000     0.97529
      H   94    0.05710      0.00000     0.94290    0.00000     0.94290
      H   95    0.03586      0.00000     0.96414    0.00000     0.96414
      H   96    0.03634      0.00000     0.96366    0.00000     0.96366
      H   97    0.02430      0.00000     0.97570    0.00000     0.97570
      H   98    0.04409      0.00000     0.95591    0.00000     0.95591
      H   99    0.06418      0.00000     0.93582    0.00000     0.93582
      H  100    0.06007      0.00000     0.93993    0.00000     0.93993
      H  101    0.02856      0.00000     0.97144    0.00000     0.97144
      H  102    0.02163      0.00000     0.97837    0.00000     0.97837
      H  103    0.07196      0.00000     0.92804    0.00000     0.92804
      H  104    0.03848      0.00000     0.96152    0.00000     0.96152
      H  105    0.04274      0.00000     0.95726    0.00000     0.95726
      H  106    0.03884      0.00000     0.96116    0.00000     0.96116
      H  107    0.04492      0.00000     0.95508    0.00000     0.95508
      H  108    0.04932      0.00000     0.95068    0.00000     0.95068
      H  109    0.04820      0.00000     0.95180    0.00000     0.95180
      H  110    0.02963      0.00000     0.97037    0.00000     0.97037
 =======================================================================
   * Total *   -0.00000    107.99664   286.00336    0.00000   394.00000

 Normal termination of Gaussian 16 at Thu May 30 09:43:29 2024.
