 Gaussian 16, Revision B.01,
 Gaussian 16:  ES64L-G16RevB.01 20-Dec-2017

 ----------------------------------------------
 # nmr=giao hf/sto-3g pop=nbo geom=connectivity
 ----------------------------------------------

 -----------------
 Pleiokomenine_C_2
 -----------------
 Symbolic Z-matrix:
 Charge =  0 Multiplicity = 1

                         Standard orientation:
 ---------------------------------------------------------------------
 Center     Atomic      Atomic             Coordinates (Angstroms)
 Number     Number       Type             X           Y           Z
 ---------------------------------------------------------------------
      1          6           0       -1.876747    1.889770    0.680236
      2          6           0       -1.731308    3.278012    0.806067
      3          6           0       -2.872857    4.096500    0.670378
      4          6           0       -4.133110    3.553501    0.375709
      5          6           0       -4.253228    2.185193    0.207854
      6          6           0       -3.125059    1.368953    0.379865
      7          7           0       -5.407999    1.436394   -0.144669
      8          6           0       -3.535447   -0.074201    0.238297
      9          6           0       -4.819441    0.166211   -0.648210
     10          6           0       -2.610102   -1.075667   -0.469342
     11          6           0       -4.369230    0.365165   -2.161767
     12          6           0       -3.666980   -0.886319   -2.703397
     13          6           0       -3.431045   -1.871513   -1.541821
     14          7           0       -2.020148   -1.868435    0.614912
     15          6           0       -1.380900   -3.105759    0.185897
     16          6           0       -2.180981   -3.940871   -0.812739
     17          6           0       -2.631933   -3.097859   -2.004947
     18          6           0       -3.680208   -0.628514    1.676125
     19          6           0       -3.015169   -1.999328    1.668698
     20          6           0       -4.861427   -2.294050   -1.059808
     21          6           0       -5.738714   -1.066876   -0.686986
     22          6           0       -6.597118   -1.324470    0.538602
     23          8           0       -6.422193   -2.231615    1.342888
     24          8           0       -7.643820   -0.453191    0.585203
     25          6           0       -8.484262   -0.608570    1.728230
     26          6           0       -6.438037    2.138464   -0.894673
     27          6           0       -0.389347    3.894154    1.148303
     28          6           0        0.769316    3.350379    0.336259
     29          6           0        1.522074    2.271704    0.823596
     30          6           0        1.035565    3.863100   -0.952407
     31          6           0        2.047141    3.323857   -1.758048
     32          6           0        2.783238    2.258872   -1.275515
     33          6           0        2.494308    1.726516    0.002047
     34          7           0        3.861780    1.574552   -1.897886
     35          6           0        3.317522    0.467951    0.166126
     36          6           0        4.515550    0.924141   -0.739374
     37          6           0        3.896983    0.026216    1.497372
     38          6           0        5.364337    2.059836    0.032120
     39          6           0        5.768106    1.613647    1.440710
     40          6           0        5.425446    0.124596    1.609166
     41          7           0        3.434113   -1.408566    1.697226
     42          6           0        3.617409   -1.750921    3.138422
     43          6           0        5.123956   -1.689856    3.463351
     44          6           0        5.826010   -0.386703    3.014712
     45          6           0        2.313869   -0.669076   -0.193366
     46          6           0        2.053033   -1.363731    1.154905
     47          6           0        6.159455   -0.593778    0.425283
     48          6           0        5.568494   -0.182966   -0.974765
     49          6           0        5.151750   -1.355119   -1.851193
     50          8           0        4.265948   -1.334254   -2.695948
     51          8           0        6.016606   -2.400791   -1.692685
     52          6           0        5.660608   -3.565171   -2.435495
     53          6           0        4.620951    2.261241   -2.923410
     54          8           0        4.101105   -2.354067    0.957004
     55          1           0       -1.039857    1.212955    0.816847
     56          1           0       -2.787095    5.174166    0.793219
     57          1           0       -4.989315    4.210496    0.276259
     58          1           0       -1.783125   -0.556631   -0.973274
     59          1           0       -5.236882    0.586787   -2.796481
     60          1           0       -3.698972    1.226087   -2.276858
     61          1           0       -4.279232   -1.349900   -3.487173
     62          1           0       -2.721863   -0.600167   -3.181483
     63          1           0       -0.427218   -2.837572   -0.286538
     64          1           0       -1.113545   -3.718654    1.055257
     65          1           0       -1.557372   -4.767700   -1.172568
     66          1           0       -3.043714   -4.398128   -0.316430
     67          1           0       -1.744446   -2.774849   -2.564661
     68          1           0       -3.226068   -3.714006   -2.690228
     69          1           0       -4.702896   -0.653781    2.049867
     70          1           0       -3.130104   -0.007353    2.398180
     71          1           0       -2.544034   -2.206889    2.635542
     72          1           0       -3.739236   -2.794164    1.483310
     73          1           0       -4.807969   -3.021887   -0.250031
     74          1           0       -5.367467   -2.832841   -1.873914
     75          1           0       -6.467651   -0.948099   -1.503491
     76          1           0       -9.252363    0.168858    1.691865
     77          1           0       -7.908203   -0.481943    2.650357
     78          1           0       -8.977883   -1.585046    1.708894
     79          1           0       -6.029322    2.659379   -1.767908
     80          1           0       -6.943913    2.870100   -0.255556
     81          1           0       -7.203298    1.441199   -1.249055
     82          1           0       -0.199169    3.741582    2.218583
     83          1           0       -0.425308    4.982195    1.005550
     84          1           0        1.296326    1.835463    1.790830
     85          1           0        0.433511    4.680885   -1.344150
     86          1           0        2.226476    3.732669   -2.745487
     87          1           0        3.420546    0.598552    2.307325
     88          1           0        4.835168    3.017523    0.108817
     89          1           0        6.268800    2.293250   -0.546667
     90          1           0        6.837800    1.797207    1.599656
     91          1           0        5.237125    2.221299    2.184707
     92          1           0        3.214244   -2.758917    3.282084
     93          1           0        3.036295   -1.035611    3.729413
     94          1           0        5.631063   -2.534609    2.980381
     95          1           0        5.266355   -1.825930    4.541612
     96          1           0        6.913064   -0.518212    3.075497
     97          1           0        5.570857    0.384002    3.754979
     98          1           0        1.365318   -0.338743   -0.633025
     99          1           0        2.740618   -1.390411   -0.889205
    100          1           0        1.673223   -2.384842    1.062076
    101          1           0        1.437055   -0.770971    1.838429
    102          1           0        6.203497   -1.674598    0.572588
    103          1           0        7.217055   -0.291278    0.442108
    104          1           0        6.399498    0.254123   -1.549369
    105          1           0        6.348019   -4.368393   -2.156049
    106          1           0        4.641803   -3.884407   -2.193335
    107          1           0        5.764644   -3.377851   -3.508571
    108          1           0        3.992349    2.469367   -3.795798
    109          1           0        5.447238    1.633958   -3.272006
    110          1           0        5.039346    3.206041   -2.560097
 ---------------------------------------------------------------------

 SCF Done:  E(RHF) =  -2300.20248262     A.U. after   16 cycles

      1  C    Isotropic =   125.2163   Anisotropy =   152.1352

      2  C    Isotropic =   120.5995   Anisotropy =   156.2146

      3  C    Isotropic =   119.2330   Anisotropy =   148.9962

      4  C    Isotropic =   133.6706   Anisotropy =   142.0775

      5  C    Isotropic =   109.2292   Anisotropy =   126.6610

      6  C    Isotropic =   117.7134   Anisotropy =   138.7782

      7  N    Isotropic =   273.6929   Anisotropy =    81.6429

      8  C    Isotropic =   196.2913   Anisotropy =    14.4505

      9  C    Isotropic =   181.0911   Anisotropy =    45.2222

     10  C    Isotropic =   190.1874   Anisotropy =    28.9444

     11  C    Isotropic =   213.8909   Anisotropy =    18.6109

     12  C    Isotropic =   213.0399   Anisotropy =    20.5001

     13  C    Isotropic =   213.7605   Anisotropy =     7.8514

     14  N    Isotropic =   302.2002   Anisotropy =    52.5296

     15  C    Isotropic =   205.3325   Anisotropy =    32.1902

     16  C    Isotropic =   224.4252   Anisotropy =     8.7058

     17  C    Isotropic =   215.4736   Anisotropy =    19.0775

     18  C    Isotropic =   210.7066   Anisotropy =    36.3515

     19  C    Isotropic =   199.9588   Anisotropy =    42.6203

     20  C    Isotropic =   212.1906   Anisotropy =    22.0518

     21  C    Isotropic =   209.1146   Anisotropy =    10.5495

     22  C    Isotropic =    96.4017   Anisotropy =    98.6666

     23  O    Isotropic =  -134.6637   Anisotropy =   887.5746

     24  O    Isotropic =   283.8810   Anisotropy =   140.0909

     25  C    Isotropic =   197.3909   Anisotropy =    57.6566

     26  C    Isotropic =   209.9183   Anisotropy =    41.7584

     27  C    Isotropic =   206.6652   Anisotropy =    18.8764

     28  C    Isotropic =   119.4127   Anisotropy =   161.4430

     29  C    Isotropic =   126.7530   Anisotropy =   147.5414

     30  C    Isotropic =   118.9895   Anisotropy =   156.3472

     31  C    Isotropic =   133.8812   Anisotropy =   144.4634

     32  C    Isotropic =   108.3063   Anisotropy =   131.3298

     33  C    Isotropic =   117.2510   Anisotropy =   143.7398

     34  N    Isotropic =   273.3698   Anisotropy =    85.6067

     35  C    Isotropic =   200.4550   Anisotropy =    12.5581

     36  C    Isotropic =   179.1846   Anisotropy =    39.4476

     37  C    Isotropic =   183.6759   Anisotropy =    43.1741

     38  C    Isotropic =   210.9361   Anisotropy =    24.1763

     39  C    Isotropic =   212.7056   Anisotropy =    20.1048

     40  C    Isotropic =   211.3992   Anisotropy =    11.8253

     41  N    Isotropic =   235.0137   Anisotropy =    22.9019

     42  C    Isotropic =   193.6669   Anisotropy =    50.3304

     43  C    Isotropic =   219.1550   Anisotropy =    11.3272

     44  C    Isotropic =   214.6833   Anisotropy =    22.5726

     45  C    Isotropic =   206.7976   Anisotropy =    36.9023

     46  C    Isotropic =   190.4352   Anisotropy =    57.3772

     47  C    Isotropic =   211.6352   Anisotropy =    25.0474

     48  C    Isotropic =   207.1664   Anisotropy =    16.3857

     49  C    Isotropic =    98.1431   Anisotropy =    96.1994

     50  O    Isotropic =  -132.0353   Anisotropy =   878.4582

     51  O    Isotropic =   285.7846   Anisotropy =   142.9093

     52  C    Isotropic =   197.4464   Anisotropy =    56.3261

     53  C    Isotropic =   211.0879   Anisotropy =    42.1666

     54  O    Isotropic =    74.4240   Anisotropy =   405.7696

     55  H    Isotropic =    26.4190   Anisotropy =    17.1253

     56  H    Isotropic =    25.7259   Anisotropy =     6.6152

     57  H    Isotropic =    26.5698   Anisotropy =     7.9018

     58  H    Isotropic =    32.0321   Anisotropy =    12.6762

     59  H    Isotropic =    32.3062   Anisotropy =    13.7664

     60  H    Isotropic =    33.2026   Anisotropy =     8.7368

     61  H    Isotropic =    32.4969   Anisotropy =    15.1673

     62  H    Isotropic =    32.8172   Anisotropy =    12.7569

     63  H    Isotropic =    32.0934   Anisotropy =    17.7017

     64  H    Isotropic =    31.9687   Anisotropy =    13.4688

     65  H    Isotropic =    32.7005   Anisotropy =    16.9382

     66  H    Isotropic =    32.6471   Anisotropy =    11.7003

     67  H    Isotropic =    32.7896   Anisotropy =    12.2656

     68  H    Isotropic =    32.5923   Anisotropy =    14.9706

     69  H    Isotropic =    32.9854   Anisotropy =    12.0226

     70  H    Isotropic =    32.4996   Anisotropy =    10.6416

     71  H    Isotropic =    31.9719   Anisotropy =    14.6732

     72  H    Isotropic =    32.0102   Anisotropy =     9.8785

     73  H    Isotropic =    31.4655   Anisotropy =     9.3780

     74  H    Isotropic =    32.2985   Anisotropy =    14.9451

     75  H    Isotropic =    31.2738   Anisotropy =    12.8209

     76  H    Isotropic =    30.5601   Anisotropy =    12.2082

     77  H    Isotropic =    30.6622   Anisotropy =     7.7529

     78  H    Isotropic =    30.5934   Anisotropy =    11.7439

     79  H    Isotropic =    31.9449   Anisotropy =    11.5431

     80  H    Isotropic =    30.7620   Anisotropy =    14.6906

     81  H    Isotropic =    30.9351   Anisotropy =    10.9875

     82  H    Isotropic =    30.2724   Anisotropy =     8.7072

     83  H    Isotropic =    29.8671   Anisotropy =    12.4862

     84  H    Isotropic =    25.9810   Anisotropy =    11.7866

     85  H    Isotropic =    25.9895   Anisotropy =     6.9569

     86  H    Isotropic =    26.5632   Anisotropy =     7.2496

     87  H    Isotropic =    31.6209   Anisotropy =     5.7469

     88  H    Isotropic =    32.9952   Anisotropy =     8.8759

     89  H    Isotropic =    32.0489   Anisotropy =    13.6525

     90  H    Isotropic =    32.1406   Anisotropy =    16.0402

     91  H    Isotropic =    32.8123   Anisotropy =    11.9474

     92  H    Isotropic =    30.7340   Anisotropy =    13.3746

     93  H    Isotropic =    31.8735   Anisotropy =    10.3301

     94  H    Isotropic =    30.9708   Anisotropy =    12.6963

     95  H    Isotropic =    32.2187   Anisotropy =    17.6949

     96  H    Isotropic =    32.0215   Anisotropy =    15.4685

     97  H    Isotropic =    32.5643   Anisotropy =    12.7473

     98  H    Isotropic =    32.4621   Anisotropy =    14.6129

     99  H    Isotropic =    31.1812   Anisotropy =     9.5696

    100  H    Isotropic =    30.6584   Anisotropy =    16.0279

    101  H    Isotropic =    31.2269   Anisotropy =    12.8281

    102  H    Isotropic =    29.7653   Anisotropy =    10.5573

    103  H    Isotropic =    31.7032   Anisotropy =    14.8887

    104  H    Isotropic =    31.3331   Anisotropy =    12.9554

    105  H    Isotropic =    30.5947   Anisotropy =    12.5760

    106  H    Isotropic =    30.5195   Anisotropy =     7.4131

    107  H    Isotropic =    30.5658   Anisotropy =    11.1925

    108  H    Isotropic =    30.7820   Anisotropy =    14.2818

    109  H    Isotropic =    31.4697   Anisotropy =    11.8416

    110  H    Isotropic =    31.9307   Anisotropy =    12.4324

 The electronic state is 1-A.
 Alpha  occ. eigenvalues --  -20.30502 -20.28511 -20.24471 -20.22509 -19.92025
 Alpha  occ. eigenvalues --  -15.48028 -15.33404 -15.33375 -15.30482 -11.16380
 Alpha  occ. eigenvalues --  -11.14752 -11.10453 -11.09596 -11.09281 -11.09232
 Alpha  occ. eigenvalues --  -11.08894 -11.08753 -11.08637 -11.07992 -11.07779
 Alpha  occ. eigenvalues --  -11.06851 -11.06642 -11.06335 -11.06245 -11.06198
 Alpha  occ. eigenvalues --  -11.06036 -11.05786 -11.05629 -11.05506 -11.05407
 Alpha  occ. eigenvalues --  -11.05147 -11.05111 -11.04733 -11.04470 -11.04459
 Alpha  occ. eigenvalues --  -11.04195 -11.04128 -11.03859 -11.03693 -11.03663
 Alpha  occ. eigenvalues --  -11.03659 -11.03629 -11.03587 -11.03129 -11.02127
 Alpha  occ. eigenvalues --  -11.02104 -11.02024 -11.01880 -11.01791 -11.01609
 Alpha  occ. eigenvalues --  -11.01550 -11.01436 -11.01282 -11.01177  -1.37723
 Alpha  occ. eigenvalues --   -1.35748  -1.29424  -1.27523  -1.25494  -1.21256
 Alpha  occ. eigenvalues --   -1.20797  -1.18689  -1.10471  -1.09486  -1.08823
 Alpha  occ. eigenvalues --   -1.07408  -1.05678  -1.04693  -1.02721  -1.00663
 Alpha  occ. eigenvalues --   -0.99008  -0.98703  -0.98258  -0.97351  -0.96612
 Alpha  occ. eigenvalues --   -0.96474  -0.95063  -0.94333  -0.94011  -0.92227
 Alpha  occ. eigenvalues --   -0.91502  -0.91395  -0.89516  -0.89276  -0.87829
 Alpha  occ. eigenvalues --   -0.86343  -0.84651  -0.82695  -0.81726  -0.81162
 Alpha  occ. eigenvalues --   -0.80344  -0.79421  -0.78138  -0.77502  -0.77309
 Alpha  occ. eigenvalues --   -0.77088  -0.74340  -0.73985  -0.72680  -0.72115
 Alpha  occ. eigenvalues --   -0.71095  -0.70138  -0.69205  -0.68327  -0.65757
 Alpha  occ. eigenvalues --   -0.65000  -0.64744  -0.64490  -0.63437  -0.62865
 Alpha  occ. eigenvalues --   -0.62457  -0.62067  -0.61469  -0.61257  -0.60991
 Alpha  occ. eigenvalues --   -0.60486  -0.59515  -0.59086  -0.58565  -0.58364
 Alpha  occ. eigenvalues --   -0.58138  -0.57900  -0.57757  -0.57448  -0.57220
 Alpha  occ. eigenvalues --   -0.56619  -0.56563  -0.56461  -0.55600  -0.55121
 Alpha  occ. eigenvalues --   -0.54925  -0.54702  -0.54556  -0.54401  -0.54246
 Alpha  occ. eigenvalues --   -0.54121  -0.53620  -0.53153  -0.52356  -0.51693
 Alpha  occ. eigenvalues --   -0.51562  -0.50882  -0.50809  -0.50689  -0.50127
 Alpha  occ. eigenvalues --   -0.49817  -0.49429  -0.49114  -0.48962  -0.48672
 Alpha  occ. eigenvalues --   -0.48168  -0.47933  -0.47618  -0.47352  -0.47001
 Alpha  occ. eigenvalues --   -0.46354  -0.45945  -0.45749  -0.45416  -0.44962
 Alpha  occ. eigenvalues --   -0.44803  -0.44594  -0.44349  -0.44131  -0.43605
 Alpha  occ. eigenvalues --   -0.43333  -0.43256  -0.43194  -0.42467  -0.42382
 Alpha  occ. eigenvalues --   -0.42180  -0.41809  -0.41294  -0.40931  -0.40556
 Alpha  occ. eigenvalues --   -0.40273  -0.39941  -0.38705  -0.38258  -0.38200
 Alpha  occ. eigenvalues --   -0.37271  -0.37142  -0.36304  -0.35432  -0.34062
 Alpha  occ. eigenvalues --   -0.33196  -0.33138  -0.31944  -0.31210  -0.30529
 Alpha  occ. eigenvalues --   -0.27111  -0.27018  -0.26065  -0.21014  -0.20268
 Alpha  occ. eigenvalues --   -0.15984  -0.15461
 Alpha virt. eigenvalues --    0.26987   0.27116   0.27724   0.28909   0.30589
 Alpha virt. eigenvalues --    0.32844   0.45710   0.48301   0.48587   0.49133
 Alpha virt. eigenvalues --    0.49449   0.49994   0.50427   0.51532   0.52398

 Mulliken charges:
               1
     1  C   -0.074726
     2  C   -0.000511
     3  C   -0.062154
     4  C   -0.090148
     5  C    0.088879
     6  C   -0.012352
     7  N   -0.286067
     8  C    0.017745
     9  C    0.127757
    10  C    0.039858
    11  C   -0.114975
    12  C   -0.105628
    13  C    0.027980
    14  N   -0.291521
    15  C   -0.016256
    16  C   -0.108130
    17  C   -0.102310
    18  C   -0.105414
    19  C   -0.020076
    20  C   -0.110477
    21  C   -0.066502
    22  C    0.319586
    23  O   -0.277114
    24  O   -0.255452
    25  C   -0.055780
    26  C   -0.079247
    27  C   -0.109650
    28  C    0.001314
    29  C   -0.079763
    30  C   -0.061726
    31  C   -0.089915
    32  C    0.095354
    33  C   -0.013866
    34  N   -0.281475
    35  C    0.015279
    36  C    0.134993
    37  C    0.039543
    38  C   -0.115986
    39  C   -0.105400
    40  C    0.040087
    41  N   -0.081775
    42  C   -0.003123
    43  C   -0.097198
    44  C   -0.099120
    45  C   -0.098113
    46  C   -0.003864
    47  C   -0.098451
    48  C   -0.058417
    49  C    0.327598
    50  O   -0.275954
    51  O   -0.255753
    52  C   -0.053995
    53  C   -0.077062
    54  O   -0.461914
    55  H    0.065514
    56  H    0.054964
    57  H    0.057803
    58  H    0.057448
    59  H    0.050511
    60  H    0.055239
    61  H    0.048270
    62  H    0.052229
    63  H    0.055222
    64  H    0.060050
    65  H    0.055328
    66  H    0.050119
    67  H    0.052430
    68  H    0.051523
    69  H    0.063809
    70  H    0.061629
    71  H    0.055399
    72  H    0.051912
    73  H    0.067562
    74  H    0.051431
    75  H    0.064868
    76  H    0.077062
    77  H    0.074524
    78  H    0.072259
    79  H    0.055491
    80  H    0.071456
    81  H    0.076375
    82  H    0.057995
    83  H    0.058046
    84  H    0.053409
    85  H    0.057247
    86  H    0.060279
    87  H    0.053944
    88  H    0.054423
    89  H    0.049206
    90  H    0.052986
    91  H    0.046891
    92  H    0.084747
    93  H    0.055740
    94  H    0.080640
    95  H    0.057752
    96  H    0.058244
    97  H    0.046672
    98  H    0.068305
    99  H    0.094370
   100  H    0.091271
   101  H    0.059307
   102  H    0.101997
   103  H    0.044603
   104  H    0.061736
   105  H    0.074153
   106  H    0.077999
   107  H    0.067179
   108  H    0.075095
   109  H    0.072100
   110  H    0.054622
 Sum of Mulliken charges =  -0.00000

 Dipole moment (field-independent basis, Debye):
    X=             -1.2308    Y=              2.1806    Z=              0.9997  Tot=              2.6961
 Quadrupole moment (field-independent basis, Debye-Ang):
   XX=           -281.9619   YY=           -302.1607   ZZ=           -292.0212
   XY=             10.5590   XZ=             10.7719   YZ=              0.4853

 Summary of Natural Population Analysis:

                                       Natural Population
                Natural  -----------------------------------------------
    Atom  No    Charge         Core      Valence    Rydberg      Total
 -----------------------------------------------------------------------
      C    1   -0.05639      1.99993     4.05646    0.00000     6.05639
      C    2    0.01369      1.99990     3.98641    0.00000     5.98631
      C    3   -0.03378      1.99994     4.03384    0.00000     6.03378
      C    4   -0.08706      1.99993     4.08713    0.00000     6.08706
      C    5    0.11195      1.99985     3.88820    0.00000     5.88805
      C    6   -0.02395      1.99990     4.02405    0.00000     6.02395
      N    7   -0.27433      1.99998     5.27435    0.00000     7.27433
      C    8    0.01922      1.99996     3.98082    0.00000     5.98078
      C    9    0.17146      1.99996     3.82858    0.00000     5.82854
      C   10    0.07366      1.99993     3.92641    0.00000     5.92634
      C   11   -0.08517      1.99994     4.08523    0.00000     6.08517
      C   12   -0.07397      1.99996     4.07401    0.00000     6.07397
      C   13    0.05040      1.99998     3.94962    0.00000     5.94960
      N   14   -0.27948      1.99999     5.27949    0.00000     7.27948
      C   15    0.03746      1.99993     3.96261    0.00000     5.96254
      C   16   -0.07459      1.99997     4.07463    0.00000     6.07459
      C   17   -0.06881      1.99996     4.06886    0.00000     6.06881
      C   18   -0.07533      1.99995     4.07539    0.00000     6.07533
      C   19    0.03319      1.99994     3.96686    0.00000     5.96681
      C   20   -0.07359      1.99992     4.07367    0.00000     6.07359
      C   21   -0.08450      1.99994     4.08456    0.00000     6.08450
      C   22    0.40296      1.99991     3.59713    0.00000     5.59704
      O   23   -0.31128      1.99999     6.31129    0.00000     8.31128
      O   24   -0.26705      1.99999     6.26706    0.00000     8.26705
      C   25    0.03462      1.99984     3.96554    0.00000     5.96538
      C   26   -0.01670      1.99992     4.01678    0.00000     6.01670
      C   27   -0.08617      1.99995     4.08622    0.00000     6.08617
      C   28    0.01541      1.99991     3.98468    0.00000     5.98459
      C   29   -0.06394      1.99992     4.06402    0.00000     6.06394
      C   30   -0.03315      1.99994     4.03321    0.00000     6.03315
      C   31   -0.08818      1.99993     4.08825    0.00000     6.08818
      C   32    0.11940      1.99985     3.88075    0.00000     5.88060
      C   33   -0.02209      1.99990     4.02219    0.00000     6.02209
      N   34   -0.27156      1.99998     5.27158    0.00000     7.27156
      C   35    0.01135      1.99996     3.98869    0.00000     5.98865
      C   36    0.17868      1.99996     3.82136    0.00000     5.82132
      C   37    0.06865      1.99991     3.93144    0.00000     5.93135
      C   38   -0.08448      1.99993     4.08456    0.00000     6.08448
      C   39   -0.07451      1.99996     4.07455    0.00000     6.07451
      C   40    0.05892      1.99998     3.94110    0.00000     5.94108
      N   41    0.03247      1.99999     4.96754    0.00000     6.96753
      C   42    0.05011      1.99992     3.94998    0.00000     5.94989
      C   43   -0.06340      1.99995     4.06345    0.00000     6.06340
      C   44   -0.06240      1.99994     4.06245    0.00000     6.06240
      C   45   -0.06698      1.99993     4.06705    0.00000     6.06698
      C   46    0.04676      1.99993     3.95331    0.00000     5.95324
      C   47   -0.06048      1.99991     4.06057    0.00000     6.06048
      C   48   -0.07373      1.99994     4.07379    0.00000     6.07373
      C   49    0.41003      1.99991     3.59006    0.00000     5.58997
      O   50   -0.31145      1.99999     6.31146    0.00000     8.31145
      O   51   -0.26815      1.99999     6.26815    0.00000     8.26815
      C   52    0.03628      1.99984     3.96388    0.00000     5.96372
      C   53   -0.01514      1.99993     4.01522    0.00000     6.01514
      O   54   -0.51441      2.00000     6.51441    0.00000     8.51441
      H   55    0.03914      0.00000     0.96086    0.00000     0.96086
      H   56    0.02772      0.00000     0.97228    0.00000     0.97228
      H   57    0.03368      0.00000     0.96632    0.00000     0.96632
      H   58    0.02606      0.00000     0.97394    0.00000     0.97394
      H   59    0.02840      0.00000     0.97160    0.00000     0.97160
      H   60    0.03223      0.00000     0.96777    0.00000     0.96777
      H   61    0.02731      0.00000     0.97269    0.00000     0.97269
      H   62    0.03103      0.00000     0.96897    0.00000     0.96897
      H   63    0.02803      0.00000     0.97197    0.00000     0.97197
      H   64    0.03429      0.00000     0.96571    0.00000     0.96571
      H   65    0.03537      0.00000     0.96463    0.00000     0.96463
      H   66    0.02958      0.00000     0.97042    0.00000     0.97042
      H   67    0.03146      0.00000     0.96854    0.00000     0.96854
      H   68    0.03068      0.00000     0.96932    0.00000     0.96932
      H   69    0.04113      0.00000     0.95887    0.00000     0.95887
      H   70    0.04050      0.00000     0.95950    0.00000     0.95950
      H   71    0.02935      0.00000     0.97065    0.00000     0.97065
      H   72    0.02288      0.00000     0.97712    0.00000     0.97712
      H   73    0.04228      0.00000     0.95772    0.00000     0.95772
      H   74    0.02923      0.00000     0.97077    0.00000     0.97077
      H   75    0.04203      0.00000     0.95797    0.00000     0.95797
      H   76    0.04602      0.00000     0.95398    0.00000     0.95398
      H   77    0.04306      0.00000     0.95694    0.00000     0.95694
      H   78    0.04072      0.00000     0.95928    0.00000     0.95928
      H   79    0.03010      0.00000     0.96990    0.00000     0.96990
      H   80    0.04714      0.00000     0.95286    0.00000     0.95286
      H   81    0.05198      0.00000     0.94802    0.00000     0.94802
      H   82    0.03944      0.00000     0.96056    0.00000     0.96056
      H   83    0.03902      0.00000     0.96098    0.00000     0.96098
      H   84    0.02901      0.00000     0.97099    0.00000     0.97099
      H   85    0.02987      0.00000     0.97013    0.00000     0.97013
      H   86    0.03620      0.00000     0.96380    0.00000     0.96380
      H   87    0.02189      0.00000     0.97811    0.00000     0.97811
      H   88    0.03086      0.00000     0.96914    0.00000     0.96914
      H   89    0.02655      0.00000     0.97345    0.00000     0.97345
      H   90    0.03209      0.00000     0.96791    0.00000     0.96791
      H   91    0.02596      0.00000     0.97404    0.00000     0.97404
      H   92    0.05318      0.00000     0.94682    0.00000     0.94682
      H   93    0.02516      0.00000     0.97484    0.00000     0.97484
      H   94    0.05595      0.00000     0.94405    0.00000     0.94405
      H   95    0.03596      0.00000     0.96404    0.00000     0.96404
      H   96    0.03591      0.00000     0.96409    0.00000     0.96409
      H   97    0.02457      0.00000     0.97543    0.00000     0.97543
      H   98    0.04516      0.00000     0.95484    0.00000     0.95484
      H   99    0.06670      0.00000     0.93330    0.00000     0.93330
      H  100    0.05958      0.00000     0.94042    0.00000     0.94042
      H  101    0.02867      0.00000     0.97133    0.00000     0.97133
      H  102    0.07272      0.00000     0.92728    0.00000     0.92728
      H  103    0.02114      0.00000     0.97886    0.00000     0.97886
      H  104    0.03862      0.00000     0.96138    0.00000     0.96138
      H  105    0.04337      0.00000     0.95663    0.00000     0.95663
      H  106    0.04634      0.00000     0.95366    0.00000     0.95366
      H  107    0.03593      0.00000     0.96407    0.00000     0.96407
      H  108    0.05081      0.00000     0.94919    0.00000     0.94919
      H  109    0.04832      0.00000     0.95168    0.00000     0.95168
      H  110    0.02916      0.00000     0.97084    0.00000     0.97084
 =======================================================================
   * Total *   -0.00000    107.99664   286.00336    0.00000   394.00000

 Normal termination of Gaussian 16 at Thu May 30 10:07:06 2024.
