 Gaussian 16, Revision B.01,
 Gaussian 16:  ES64L-G16RevB.01 20-Dec-2017

 ----------------------------------------------
 # nmr=giao hf/sto-3g pop=nbo geom=connectivity
 ----------------------------------------------

 -----------------
 Pleiokomenine_C_2
 -----------------
 Symbolic Z-matrix:
 Charge =  0 Multiplicity = 1

                         Standard orientation:
 ---------------------------------------------------------------------
 Center     Atomic      Atomic             Coordinates (Angstroms)
 Number     Number       Type             X           Y           Z
 ---------------------------------------------------------------------
      1          6           0        1.791892    1.896282   -0.686593
      2          6           0        1.625526    3.280578   -0.829876
      3          6           0        2.757693    4.115843   -0.719653
      4          6           0        4.029056    3.594072   -0.434371
      5          6           0        4.170477    2.229747   -0.251127
      6          6           0        3.051211    1.396350   -0.396437
      7          7           0        5.340532    1.501052    0.091429
      8          6           0        3.483866   -0.039427   -0.245850
      9          6           0        4.778750    0.228072    0.616908
     10          6           0        2.583940   -1.045358    0.487879
     11          6           0        4.350600    0.436481    2.135626
     12          6           0        3.675501   -0.819183    2.701719
     13          6           0        3.433616   -1.819162    1.554074
     14          7           0        1.985471   -1.856723   -0.577506
     15          6           0        1.370968   -3.098635   -0.125960
     16          6           0        2.199483   -3.912525    0.867076
     17          6           0        2.659051   -3.051233    2.042962
     18          6           0        3.612220   -0.607400   -1.679859
     19          6           0        2.963955   -1.985932   -1.647238
     20          6           0        4.861247   -2.227055    1.052128
     21          6           0        5.715538   -0.991913    0.652931
     22          6           0        6.557480   -1.250304   -0.583878
     23          8           0        6.382112   -2.168662   -1.375287
     24          8           0        7.590471   -0.364745   -0.657120
     25          6           0        8.414376   -0.520843   -1.812049
     26          6           0        6.373641    2.225068    0.815793
     27          6           0        0.273074    3.875115   -1.170002
     28          6           0       -0.878226    3.308337   -0.363231
     29          6           0       -1.605768    2.213684   -0.853125
     30          6           0       -1.162498    3.817250    0.922843
     31          6           0       -2.167279    3.258079    1.722986
     32          6           0       -2.877506    2.176155    1.238135
     33          6           0       -2.569892    1.647584   -0.036053
     34          7           0       -3.944752    1.469966    1.858410
     35          6           0       -3.362790    0.369947   -0.203803
     36          6           0       -4.574399    0.794993    0.696272
     37          6           0       -3.924333   -0.083360   -1.539603
     38          6           0       -5.448339    1.906406   -0.086037
     39          6           0       -5.847659    1.438538   -1.488718
     40          6           0       -5.455716   -0.039072   -1.652958
     41          7           0       -3.408360   -1.497059   -1.747870
     42          6           0       -3.577369   -1.839687   -3.190106
     43          6           0       -5.085501   -1.836073   -3.514083
     44          6           0       -5.838064   -0.563771   -3.059011
     45          6           0       -2.332747   -0.741411    0.158132
     46          6           0       -2.033703   -1.409407   -1.197121
     47          6           0       -6.169286   -0.777540   -0.467885
     48          6           0       -5.604155   -0.334683    0.931049
     49          6           0       -5.247517   -1.530978    1.799133
     50          8           0       -5.891207   -2.576150    1.804373
     51          8           0       -4.256739   -1.256319    2.686025
     52          6           0       -3.918650   -2.343770    3.545324
     53          6           0       -4.735445    2.164571    2.856978
     54          8           0       -4.041524   -2.466749   -1.013854
     55          1           0        0.963759    1.205553   -0.804997
     56          1           0        2.656031    5.190463   -0.857388
     57          1           0        4.877594    4.263866   -0.356063
     58          1           0        1.759244   -0.531569    1.000791
     59          1           0        5.225166    0.677237    2.753607
     60          1           0        3.669833    1.288862    2.252646
     61          1           0        4.307727   -1.266172    3.479256
     62          1           0        2.734877   -0.541252    3.193260
     63          1           0        0.421570   -2.839260    0.359853
     64          1           0        1.097823   -3.723865   -0.984720
     65          1           0        1.593595   -4.744086    1.245864
     66          1           0        3.059919   -4.362929    0.360618
     67          1           0        1.776821   -2.734622    2.614434
     68          1           0        3.273000   -3.652351    2.724087
     69          1           0        3.043358   -0.000919   -2.399664
     70          1           0        4.629040   -0.624678   -2.069750
     71          1           0        2.478797   -2.209032   -2.603513
     72          1           0        3.700981   -2.770038   -1.466353
     73          1           0        4.804010   -2.963309    0.250291
     74          1           0        5.388190   -2.751231    1.862561
     75          1           0        6.455925   -0.854812    1.456291
     76          1           0        8.922392   -1.489874   -1.790208
     77          1           0        9.171666    0.267858   -1.796637
     78          1           0        7.821657   -0.412786   -2.725922
     79          1           0        5.972732    2.750429    1.689937
     80          1           0        6.858876    2.955948    0.160010
     81          1           0        7.154040    1.542063    1.164974
     82          1           0        0.290916    4.962763   -1.021298
     83          1           0        0.086700    3.724818   -2.241330
     84          1           0       -1.366039    1.782529   -1.819463
     85          1           0       -0.580716    4.648869    1.316040
     86          1           0       -2.361537    3.665952    2.707994
     87          1           0       -3.468130    0.511386   -2.345128
     88          1           0       -4.937026    2.872721   -0.174138
     89          1           0       -6.356041    2.129289    0.491815
     90          1           0       -6.924285    1.584261   -1.640185
     91          1           0       -5.344066    2.060611   -2.239804
     92          1           0       -3.135248   -2.830402   -3.338420
     93          1           0       -3.024546   -1.099253   -3.777278
     94          1           0       -5.558955   -2.702293   -3.035029
     95          1           0       -5.222954   -1.972659   -4.592886
     96          1           0       -6.919129   -0.738389   -3.118122
     97          1           0       -5.615857    0.218106   -3.798054
     98          1           0       -1.401296   -0.391089    0.618243
     99          1           0       -2.753772   -1.483279    0.836671
    100          1           0       -1.617926   -2.417173   -1.112757
    101          1           0       -1.434994   -0.787200   -1.869531
    102          1           0       -6.166619   -1.862273   -0.596593
    103          1           0       -7.238314   -0.519222   -0.494112
    104          1           0       -6.447752    0.101351    1.488454
    105          1           0       -3.621515   -3.220903    2.961595
    106          1           0       -3.068883   -2.036466    4.161053
    107          1           0       -4.757335   -2.582159    4.206621
    108          1           0       -4.127849    2.393095    3.739152
    109          1           0       -5.561224    1.532399    3.197887
    110          1           0       -5.157282    3.098883    2.471064
 ---------------------------------------------------------------------

 SCF Done:  E(RHF) =  -2300.19871886     A.U. after   16 cycles

      1  C    Isotropic =   125.1931   Anisotropy =   152.1320

      2  C    Isotropic =   120.5403   Anisotropy =   156.1474

      3  C    Isotropic =   119.1388   Anisotropy =   149.1936

      4  C    Isotropic =   133.6427   Anisotropy =   142.0211

      5  C    Isotropic =   109.2416   Anisotropy =   126.5999

      6  C    Isotropic =   117.6981   Anisotropy =   138.6153

      7  N    Isotropic =   273.7945   Anisotropy =    81.7082

      8  C    Isotropic =   196.2200   Anisotropy =    14.6020

      9  C    Isotropic =   181.0826   Anisotropy =    45.1924

     10  C    Isotropic =   190.1505   Anisotropy =    28.9234

     11  C    Isotropic =   213.8538   Anisotropy =    18.5890

     12  C    Isotropic =   212.9691   Anisotropy =    20.5114

     13  C    Isotropic =   213.7360   Anisotropy =     7.8781

     14  N    Isotropic =   302.1166   Anisotropy =    52.2664

     15  C    Isotropic =   205.2575   Anisotropy =    32.0341

     16  C    Isotropic =   224.3848   Anisotropy =     8.7071

     17  C    Isotropic =   215.3982   Anisotropy =    19.0338

     18  C    Isotropic =   210.6700   Anisotropy =    36.3604

     19  C    Isotropic =   199.8798   Anisotropy =    42.6799

     20  C    Isotropic =   212.1685   Anisotropy =    22.1085

     21  C    Isotropic =   209.0854   Anisotropy =    10.5167

     22  C    Isotropic =    96.4029   Anisotropy =    98.6620

     23  O    Isotropic =  -134.9091   Anisotropy =   887.8857

     24  O    Isotropic =   283.8441   Anisotropy =   140.0978

     25  C    Isotropic =   197.3608   Anisotropy =    57.6891

     26  C    Isotropic =   209.9059   Anisotropy =    41.8225

     27  C    Isotropic =   206.6425   Anisotropy =    19.1542

     28  C    Isotropic =   119.3107   Anisotropy =   161.4971

     29  C    Isotropic =   126.6105   Anisotropy =   147.5934

     30  C    Isotropic =   118.9690   Anisotropy =   156.0927

     31  C    Isotropic =   133.6708   Anisotropy =   144.4290

     32  C    Isotropic =   108.1381   Anisotropy =   131.1932

     33  C    Isotropic =   117.0617   Anisotropy =   143.7240

     34  N    Isotropic =   271.9323   Anisotropy =    83.8709

     35  C    Isotropic =   200.5527   Anisotropy =    12.9064

     36  C    Isotropic =   178.7524   Anisotropy =    38.1878

     37  C    Isotropic =   183.7322   Anisotropy =    42.8669

     38  C    Isotropic =   210.8152   Anisotropy =    24.1748

     39  C    Isotropic =   212.5981   Anisotropy =    20.2518

     40  C    Isotropic =   211.3644   Anisotropy =    11.9373

     41  N    Isotropic =   235.2338   Anisotropy =    22.5254

     42  C    Isotropic =   193.7773   Anisotropy =    50.2764

     43  C    Isotropic =   219.1895   Anisotropy =    11.4155

     44  C    Isotropic =   214.7145   Anisotropy =    22.7059

     45  C    Isotropic =   206.2001   Anisotropy =    36.1460

     46  C    Isotropic =   190.3810   Anisotropy =    57.0653

     47  C    Isotropic =   211.0454   Anisotropy =    24.2037

     48  C    Isotropic =   207.5523   Anisotropy =    11.4097

     49  C    Isotropic =    98.4515   Anisotropy =   103.6339

     50  O    Isotropic =  -132.8669   Anisotropy =   875.3216

     51  O    Isotropic =   286.4653   Anisotropy =   131.7964

     52  C    Isotropic =   197.5653   Anisotropy =    57.0986

     53  C    Isotropic =   210.7445   Anisotropy =    42.1477

     54  O    Isotropic =    79.0267   Anisotropy =   397.2267

     55  H    Isotropic =    26.3926   Anisotropy =    17.1673

     56  H    Isotropic =    25.6949   Anisotropy =     6.6818

     57  H    Isotropic =    26.5413   Anisotropy =     7.8815

     58  H    Isotropic =    31.9811   Anisotropy =    12.5780

     59  H    Isotropic =    32.2668   Anisotropy =    13.8313

     60  H    Isotropic =    33.1530   Anisotropy =     8.6562

     61  H    Isotropic =    32.4555   Anisotropy =    15.1549

     62  H    Isotropic =    32.7833   Anisotropy =    12.7768

     63  H    Isotropic =    32.0174   Anisotropy =    17.6608

     64  H    Isotropic =    31.9086   Anisotropy =    13.3833

     65  H    Isotropic =    32.6572   Anisotropy =    16.8333

     66  H    Isotropic =    32.6032   Anisotropy =    11.7172

     67  H    Isotropic =    32.7637   Anisotropy =    12.4235

     68  H    Isotropic =    32.5491   Anisotropy =    14.9268

     69  H    Isotropic =    32.4752   Anisotropy =    10.5837

     70  H    Isotropic =    32.9581   Anisotropy =    12.0761

     71  H    Isotropic =    31.9390   Anisotropy =    14.5975

     72  H    Isotropic =    31.9786   Anisotropy =     9.8825

     73  H    Isotropic =    31.4314   Anisotropy =     9.3463

     74  H    Isotropic =    32.2674   Anisotropy =    14.9388

     75  H    Isotropic =    31.2453   Anisotropy =    12.8723

     76  H    Isotropic =    30.5768   Anisotropy =    11.7484

     77  H    Isotropic =    30.5425   Anisotropy =    12.2324

     78  H    Isotropic =    30.6457   Anisotropy =     7.7392

     79  H    Isotropic =    31.9181   Anisotropy =    11.5845

     80  H    Isotropic =    30.7354   Anisotropy =    14.7222

     81  H    Isotropic =    30.9096   Anisotropy =    11.0148

     82  H    Isotropic =    29.8264   Anisotropy =    12.5500

     83  H    Isotropic =    30.2432   Anisotropy =     8.6837

     84  H    Isotropic =    25.9304   Anisotropy =    11.8579

     85  H    Isotropic =    25.9368   Anisotropy =     6.8960

     86  H    Isotropic =    26.4844   Anisotropy =     7.5231

     87  H    Isotropic =    31.6045   Anisotropy =     5.6948

     88  H    Isotropic =    32.9647   Anisotropy =     8.8873

     89  H    Isotropic =    32.0246   Anisotropy =    13.6249

     90  H    Isotropic =    32.1273   Anisotropy =    15.9849

     91  H    Isotropic =    32.7927   Anisotropy =    12.0162

     92  H    Isotropic =    30.7695   Anisotropy =    13.4088

     93  H    Isotropic =    31.8878   Anisotropy =    10.2862

     94  H    Isotropic =    31.0337   Anisotropy =    12.9155

     95  H    Isotropic =    32.2625   Anisotropy =    17.6218

     96  H    Isotropic =    32.0450   Anisotropy =    15.4680

     97  H    Isotropic =    32.5891   Anisotropy =    12.6775

     98  H    Isotropic =    32.2412   Anisotropy =    14.1653

     99  H    Isotropic =    30.4574   Anisotropy =    11.3289

    100  H    Isotropic =    30.5577   Anisotropy =    16.1250

    101  H    Isotropic =    31.1459   Anisotropy =    12.7078

    102  H    Isotropic =    29.9888   Anisotropy =    11.2511

    103  H    Isotropic =    31.6786   Anisotropy =    15.1935

    104  H    Isotropic =    31.3244   Anisotropy =    13.0346

    105  H    Isotropic =    30.4594   Anisotropy =     8.2199

    106  H    Isotropic =    30.6196   Anisotropy =     9.9167

    107  H    Isotropic =    30.5403   Anisotropy =    12.7373

    108  H    Isotropic =    30.6602   Anisotropy =    14.1482

    109  H    Isotropic =    31.2493   Anisotropy =    11.5904

    110  H    Isotropic =    31.8576   Anisotropy =    12.5329

 The electronic state is 1-A.
 Alpha  occ. eigenvalues --  -20.30603 -20.29023 -20.24577 -20.22200 -19.91837
 Alpha  occ. eigenvalues --  -15.48041 -15.33531 -15.33500 -15.30633 -11.16486
 Alpha  occ. eigenvalues --  -11.14656 -11.10536 -11.09539 -11.09376 -11.09375
 Alpha  occ. eigenvalues --  -11.09186 -11.08957 -11.08649 -11.08085 -11.07898
 Alpha  occ. eigenvalues --  -11.07019 -11.06793 -11.06434 -11.06375 -11.06210
 Alpha  occ. eigenvalues --  -11.06155 -11.05863 -11.05644 -11.05595 -11.05532
 Alpha  occ. eigenvalues --  -11.05291 -11.05042 -11.04705 -11.04666 -11.04577
 Alpha  occ. eigenvalues --  -11.04343 -11.04141 -11.04074 -11.03876 -11.03838
 Alpha  occ. eigenvalues --  -11.03828 -11.03705 -11.03695 -11.03096 -11.02258
 Alpha  occ. eigenvalues --  -11.02226 -11.02142 -11.02004 -11.01922 -11.01724
 Alpha  occ. eigenvalues --  -11.01665 -11.01581 -11.01395 -11.01291  -1.37823
 Alpha  occ. eigenvalues --   -1.36087  -1.29517  -1.27625  -1.25369  -1.21394
 Alpha  occ. eigenvalues --   -1.20843  -1.18834  -1.10474  -1.09635  -1.08947
 Alpha  occ. eigenvalues --   -1.07518  -1.05731  -1.04841  -1.02670  -1.00779
 Alpha  occ. eigenvalues --   -0.99109  -0.98726  -0.98382  -0.97377  -0.96754
 Alpha  occ. eigenvalues --   -0.96448  -0.95096  -0.94475  -0.94117  -0.92271
 Alpha  occ. eigenvalues --   -0.91605  -0.91459  -0.90225  -0.89480  -0.87931
 Alpha  occ. eigenvalues --   -0.86369  -0.84777  -0.82845  -0.81872  -0.80896
 Alpha  occ. eigenvalues --   -0.80391  -0.79571  -0.78182  -0.77644  -0.77442
 Alpha  occ. eigenvalues --   -0.77230  -0.74420  -0.74124  -0.72738  -0.72201
 Alpha  occ. eigenvalues --   -0.71195  -0.70247  -0.69337  -0.68502  -0.65895
 Alpha  occ. eigenvalues --   -0.65251  -0.64834  -0.64750  -0.63579  -0.63185
 Alpha  occ. eigenvalues --   -0.62352  -0.62163  -0.61545  -0.61227  -0.61114
 Alpha  occ. eigenvalues --   -0.60598  -0.59655  -0.59393  -0.58680  -0.58482
 Alpha  occ. eigenvalues --   -0.58226  -0.58040  -0.57768  -0.57522  -0.57341
 Alpha  occ. eigenvalues --   -0.56793  -0.56690  -0.56573  -0.55731  -0.55240
 Alpha  occ. eigenvalues --   -0.54843  -0.54707  -0.54653  -0.54524  -0.54462
 Alpha  occ. eigenvalues --   -0.54010  -0.53773  -0.53275  -0.52469  -0.51778
 Alpha  occ. eigenvalues --   -0.51665  -0.51006  -0.50937  -0.50603  -0.50351
 Alpha  occ. eigenvalues --   -0.49964  -0.49533  -0.49396  -0.49143  -0.48547
 Alpha  occ. eigenvalues --   -0.48227  -0.48005  -0.47665  -0.47334  -0.47129
 Alpha  occ. eigenvalues --   -0.46489  -0.46071  -0.45876  -0.45562  -0.45083
 Alpha  occ. eigenvalues --   -0.44801  -0.44755  -0.44368  -0.44265  -0.43686
 Alpha  occ. eigenvalues --   -0.43446  -0.43337  -0.43114  -0.42531  -0.42484
 Alpha  occ. eigenvalues --   -0.42249  -0.41935  -0.41433  -0.41093  -0.40685
 Alpha  occ. eigenvalues --   -0.40420  -0.39843  -0.38720  -0.38392  -0.38117
 Alpha  occ. eigenvalues --   -0.37349  -0.37135  -0.36445  -0.35466  -0.34174
 Alpha  occ. eigenvalues --   -0.33291  -0.33046  -0.32055  -0.31268  -0.30785
 Alpha  occ. eigenvalues --   -0.27247  -0.27149  -0.26205  -0.21135  -0.20431
 Alpha  occ. eigenvalues --   -0.15788  -0.15290
 Alpha virt. eigenvalues --    0.26880   0.26987   0.27610   0.28750   0.30483
 Alpha virt. eigenvalues --    0.32941   0.45687   0.48177   0.48471   0.49025
 Alpha virt. eigenvalues --    0.49376   0.50197   0.50331   0.51869   0.52258

 Mulliken charges:
               1
     1  C   -0.074920
     2  C   -0.000642
     3  C   -0.062047
     4  C   -0.090117
     5  C    0.089002
     6  C   -0.012574
     7  N   -0.286115
     8  C    0.017760
     9  C    0.127885
    10  C    0.039888
    11  C   -0.114952
    12  C   -0.105549
    13  C    0.027902
    14  N   -0.291490
    15  C   -0.016249
    16  C   -0.108222
    17  C   -0.102150
    18  C   -0.105517
    19  C   -0.020082
    20  C   -0.110472
    21  C   -0.066440
    22  C    0.319567
    23  O   -0.276928
    24  O   -0.255440
    25  C   -0.055782
    26  C   -0.079181
    27  C   -0.109686
    28  C    0.001443
    29  C   -0.079746
    30  C   -0.061960
    31  C   -0.090014
    32  C    0.093845
    33  C   -0.013973
    34  N   -0.279368
    35  C    0.015594
    36  C    0.135135
    37  C    0.039822
    38  C   -0.116088
    39  C   -0.105446
    40  C    0.040644
    41  N   -0.081083
    42  C   -0.002924
    43  C   -0.097144
    44  C   -0.099028
    45  C   -0.095852
    46  C   -0.003334
    47  C   -0.098549
    48  C   -0.059080
    49  C    0.325157
    50  O   -0.273464
    51  O   -0.255571
    52  C   -0.055636
    53  C   -0.077475
    54  O   -0.461912
    55  H    0.065563
    56  H    0.055075
    57  H    0.057924
    58  H    0.056804
    59  H    0.050653
    60  H    0.055059
    61  H    0.048306
    62  H    0.051298
    63  H    0.054651
    64  H    0.060812
    65  H    0.055402
    66  H    0.050596
    67  H    0.050940
    68  H    0.051660
    69  H    0.061786
    70  H    0.064001
    71  H    0.055709
    72  H    0.051958
    73  H    0.067811
    74  H    0.051512
    75  H    0.064884
    76  H    0.072373
    77  H    0.077165
    78  H    0.074613
    79  H    0.055437
    80  H    0.071648
    81  H    0.076465
    82  H    0.058236
    83  H    0.058305
    84  H    0.053580
    85  H    0.057267
    86  H    0.060004
    87  H    0.053794
    88  H    0.054299
    89  H    0.049462
    90  H    0.053225
    91  H    0.046892
    92  H    0.085052
    93  H    0.055263
    94  H    0.081921
    95  H    0.057666
    96  H    0.058708
    97  H    0.046423
    98  H    0.067263
    99  H    0.091542
   100  H    0.091797
   101  H    0.059244
   102  H    0.101143
   103  H    0.045119
   104  H    0.061438
   105  H    0.076485
   106  H    0.073506
   107  H    0.070114
   108  H    0.073547
   109  H    0.072036
   110  H    0.055121
 Sum of Mulliken charges =  -0.00000

 Dipole moment (field-independent basis, Debye):
    X=              2.5891    Y=              3.3152    Z=             -0.2289  Tot=              4.2127
 Quadrupole moment (field-independent basis, Debye-Ang):
   XX=           -293.1633   YY=           -310.5484   ZZ=           -286.0161
   XY=            -20.2778   XZ=             11.2831   YZ=             -0.1087

 Summary of Natural Population Analysis:

                                       Natural Population
                Natural  -----------------------------------------------
    Atom  No    Charge         Core      Valence    Rydberg      Total
 -----------------------------------------------------------------------
      C    1   -0.05655      1.99993     4.05663    0.00000     6.05655
      C    2    0.01358      1.99990     3.98652    0.00000     5.98642
      C    3   -0.03365      1.99994     4.03370    0.00000     6.03365
      C    4   -0.08705      1.99993     4.08712    0.00000     6.08705
      C    5    0.11205      1.99985     3.88809    0.00000     5.88795
      C    6   -0.02425      1.99990     4.02435    0.00000     6.02425
      N    7   -0.27437      1.99998     5.27439    0.00000     7.27437
      C    8    0.01929      1.99996     3.98075    0.00000     5.98071
      C    9    0.17156      1.99996     3.82848    0.00000     5.82844
      C   10    0.07369      1.99993     3.92638    0.00000     5.92631
      C   11   -0.08516      1.99994     4.08522    0.00000     6.08516
      C   12   -0.07382      1.99996     4.07386    0.00000     6.07382
      C   13    0.05029      1.99998     3.94973    0.00000     5.94971
      N   14   -0.27945      1.99999     5.27946    0.00000     7.27945
      C   15    0.03746      1.99993     3.96261    0.00000     5.96254
      C   16   -0.07472      1.99997     4.07475    0.00000     6.07472
      C   17   -0.06855      1.99996     4.06859    0.00000     6.06855
      C   18   -0.07548      1.99995     4.07553    0.00000     6.07548
      C   19    0.03322      1.99994     3.96684    0.00000     5.96678
      C   20   -0.07360      1.99992     4.07368    0.00000     6.07360
      C   21   -0.08441      1.99994     4.08447    0.00000     6.08441
      C   22    0.40287      1.99991     3.59722    0.00000     5.59713
      O   23   -0.31108      1.99999     6.31110    0.00000     8.31108
      O   24   -0.26702      1.99999     6.26703    0.00000     8.26702
      C   25    0.03462      1.99984     3.96554    0.00000     5.96538
      C   26   -0.01662      1.99992     4.01670    0.00000     6.01662
      C   27   -0.08623      1.99995     4.08627    0.00000     6.08623
      C   28    0.01565      1.99991     3.98444    0.00000     5.98435
      C   29   -0.06391      1.99992     4.06399    0.00000     6.06391
      C   30   -0.03355      1.99994     4.03361    0.00000     6.03355
      C   31   -0.08804      1.99993     4.08811    0.00000     6.08804
      C   32    0.11764      1.99985     3.88251    0.00000     5.88236
      C   33   -0.02208      1.99990     4.02219    0.00000     6.02208
      N   34   -0.26942      1.99998     5.26944    0.00000     7.26942
      C   35    0.01129      1.99996     3.98875    0.00000     5.98871
      C   36    0.17935      1.99996     3.82069    0.00000     5.82065
      C   37    0.06866      1.99991     3.93143    0.00000     5.93134
      C   38   -0.08443      1.99993     4.08451    0.00000     6.08443
      C   39   -0.07472      1.99996     4.07476    0.00000     6.07472
      C   40    0.05985      1.99998     3.94018    0.00000     5.94015
      N   41    0.03352      1.99999     4.96649    0.00000     6.96648
      C   42    0.05031      1.99992     3.94978    0.00000     5.94969
      C   43   -0.06340      1.99995     4.06345    0.00000     6.06340
      C   44   -0.06236      1.99994     4.06241    0.00000     6.06236
      C   45   -0.06419      1.99993     4.06426    0.00000     6.06419
      C   46    0.04710      1.99993     3.95297    0.00000     5.95290
      C   47   -0.06066      1.99991     4.06075    0.00000     6.06066
      C   48   -0.07441      1.99994     4.07448    0.00000     6.07441
      C   49    0.40564      1.99991     3.59444    0.00000     5.59436
      O   50   -0.30908      1.99999     6.30909    0.00000     8.30908
      O   51   -0.26671      1.99999     6.26671    0.00000     8.26671
      C   52    0.03480      1.99984     3.96536    0.00000     5.96520
      C   53   -0.01546      1.99993     4.01554    0.00000     6.01546
      O   54   -0.51477      2.00000     6.51478    0.00000     8.51477
      H   55    0.03916      0.00000     0.96084    0.00000     0.96084
      H   56    0.02782      0.00000     0.97218    0.00000     0.97218
      H   57    0.03379      0.00000     0.96621    0.00000     0.96621
      H   58    0.02547      0.00000     0.97453    0.00000     0.97453
      H   59    0.02853      0.00000     0.97147    0.00000     0.97147
      H   60    0.03206      0.00000     0.96794    0.00000     0.96794
      H   61    0.02734      0.00000     0.97266    0.00000     0.97266
      H   62    0.03017      0.00000     0.96983    0.00000     0.96983
      H   63    0.02751      0.00000     0.97249    0.00000     0.97249
      H   64    0.03499      0.00000     0.96501    0.00000     0.96501
      H   65    0.03544      0.00000     0.96456    0.00000     0.96456
      H   66    0.03002      0.00000     0.96998    0.00000     0.96998
      H   67    0.03009      0.00000     0.96991    0.00000     0.96991
      H   68    0.03078      0.00000     0.96922    0.00000     0.96922
      H   69    0.04063      0.00000     0.95937    0.00000     0.95937
      H   70    0.04131      0.00000     0.95869    0.00000     0.95869
      H   71    0.02960      0.00000     0.97040    0.00000     0.97040
      H   72    0.02294      0.00000     0.97706    0.00000     0.97706
      H   73    0.04250      0.00000     0.95750    0.00000     0.95750
      H   74    0.02932      0.00000     0.97068    0.00000     0.97068
      H   75    0.04205      0.00000     0.95795    0.00000     0.95795
      H   76    0.04083      0.00000     0.95917    0.00000     0.95917
      H   77    0.04612      0.00000     0.95388    0.00000     0.95388
      H   78    0.04313      0.00000     0.95687    0.00000     0.95687
      H   79    0.03004      0.00000     0.96996    0.00000     0.96996
      H   80    0.04731      0.00000     0.95269    0.00000     0.95269
      H   81    0.05207      0.00000     0.94793    0.00000     0.94793
      H   82    0.03919      0.00000     0.96081    0.00000     0.96081
      H   83    0.03974      0.00000     0.96026    0.00000     0.96026
      H   84    0.02917      0.00000     0.97083    0.00000     0.97083
      H   85    0.02992      0.00000     0.97008    0.00000     0.97008
      H   86    0.03594      0.00000     0.96406    0.00000     0.96406
      H   87    0.02176      0.00000     0.97824    0.00000     0.97824
      H   88    0.03069      0.00000     0.96931    0.00000     0.96931
      H   89    0.02674      0.00000     0.97326    0.00000     0.97326
      H   90    0.03230      0.00000     0.96770    0.00000     0.96770
      H   91    0.02597      0.00000     0.97403    0.00000     0.97403
      H   92    0.05346      0.00000     0.94654    0.00000     0.94654
      H   93    0.02472      0.00000     0.97528    0.00000     0.97528
      H   94    0.05711      0.00000     0.94289    0.00000     0.94289
      H   95    0.03586      0.00000     0.96414    0.00000     0.96414
      H   96    0.03633      0.00000     0.96367    0.00000     0.96367
      H   97    0.02430      0.00000     0.97570    0.00000     0.97570
      H   98    0.04405      0.00000     0.95595    0.00000     0.95595
      H   99    0.06419      0.00000     0.93581    0.00000     0.93581
      H  100    0.06003      0.00000     0.93997    0.00000     0.93997
      H  101    0.02857      0.00000     0.97143    0.00000     0.97143
      H  102    0.07197      0.00000     0.92803    0.00000     0.92803
      H  103    0.02164      0.00000     0.97836    0.00000     0.97836
      H  104    0.03848      0.00000     0.96152    0.00000     0.96152
      H  105    0.04491      0.00000     0.95509    0.00000     0.95509
      H  106    0.04274      0.00000     0.95726    0.00000     0.95726
      H  107    0.03883      0.00000     0.96117    0.00000     0.96117
      H  108    0.04932      0.00000     0.95068    0.00000     0.95068
      H  109    0.04820      0.00000     0.95180    0.00000     0.95180
      H  110    0.02962      0.00000     0.97038    0.00000     0.97038
 =======================================================================
   * Total *   -0.00000    107.99665   286.00335    0.00000   394.00000

 Normal termination of Gaussian 16 at Thu May 30 09:45:26 2024.
