 Gaussian 16, Revision B.01,
 Gaussian 16:  ES64L-G16RevB.01 20-Dec-2017

 ----------------------------------------------
 # nmr=giao hf/sto-3g pop=nbo geom=connectivity
 ----------------------------------------------

 -----------------
 Pleiokomenine_C_2
 -----------------
 Symbolic Z-matrix:
 Charge =  0 Multiplicity = 1

                         Standard orientation:
 ---------------------------------------------------------------------
 Center     Atomic      Atomic             Coordinates (Angstroms)
 Number     Number       Type             X           Y           Z
 ---------------------------------------------------------------------
      1          6           0       -1.807694    2.319425    0.331854
      2          6           0       -1.388273    3.425083   -0.422024
      3          6           0       -2.060493    3.732460   -1.623568
      4          6           0       -3.105938    2.929329   -2.100828
      5          6           0       -3.472714    1.806408   -1.379998
      6          6           0       -2.829237    1.523671   -0.163516
      7          7           0       -4.449509    0.830253   -1.710076
      8          6           0       -3.473086    0.309833    0.458266
      9          6           0       -4.040172   -0.325643   -0.871647
     10          6           0       -2.614462   -0.734183    1.187455
     11          6           0       -2.866394   -1.107616   -1.610843
     12          6           0       -2.332385   -2.256784   -0.748434
     13          6           0       -2.962976   -2.165732    0.653992
     14          7           0       -2.872698   -0.501272    2.608865
     15          6           0       -2.446983   -1.570140    3.499960
     16          6           0       -2.813925   -2.980693    3.040426
     17          6           0       -2.377866   -3.227544    1.596307
     18          6           0       -4.447543    0.837030    1.538531
     19          6           0       -4.249898   -0.056474    2.756561
     20          6           0       -4.496664   -2.401387    0.435642
     21          6           0       -5.099646   -1.406787   -0.595473
     22          6           0       -6.483281   -0.928396   -0.191508
     23          8           0       -6.966411   -1.039363    0.928402
     24          8           0       -7.152283   -0.425646   -1.266564
     25          6           0       -8.452807    0.078381   -0.963112
     26          6           0       -4.772474    0.668836   -3.118939
     27          6           0       -0.253087    4.307984    0.062174
     28          6           0        0.963674    3.550829    0.560640
     29          6           0        1.531824    2.528007   -0.213927
     30          6           0        1.538540    3.879772    1.808060
     31          6           0        2.632555    3.169006    2.319294
     32          6           0        3.141542    2.116339    1.583561
     33          6           0        2.599276    1.820563    0.311954
     34          7           0        4.157268    1.190292    1.948872
     35          6           0        3.421447    0.701588   -0.286700
     36          6           0        3.829815    0.038751    1.076394
     37          6           0        2.816408   -0.387441   -1.154778
     38          6           0        2.543884   -0.701111    1.720042
     39          6           0        1.873319   -1.651850    0.724596
     40          6           0        2.769417   -1.783601   -0.517070
     41          7           0        3.641243   -0.406321   -2.431836
     42          6           0        2.861540   -1.146097   -3.467678
     43          6           0        2.689015   -2.604116   -2.995187
     44          6           0        2.148891   -2.751851   -1.553703
     45          6           0        4.400447    1.437826   -1.245758
     46          6           0        3.904408    1.038423   -2.646790
     47          6           0        4.164701   -2.234698    0.036438
     48          6           0        4.839812   -1.121071    0.921537
     49          6           0        6.254137   -0.751490    0.499197
     50          8           0        6.782731    0.340968    0.658411
     51          8           0        6.927526   -1.858262    0.065591
     52          6           0        8.246282   -1.586737   -0.405095
     53          6           0        4.467655    1.020397    3.354627
     54          8           0        4.872699   -1.004709   -2.332638
     55          1           0       -1.346336    2.081545    1.287341
     56          1           0       -1.769178    4.607419   -2.201462
     57          1           0       -3.603561    3.192314   -3.027207
     58          1           0       -1.545397   -0.546337    1.018969
     59          1           0       -2.033230   -0.441938   -1.869418
     60          1           0       -3.217993   -1.515928   -2.567139
     61          1           0       -2.567866   -3.219775   -1.218803
     62          1           0       -1.238721   -2.200243   -0.696975
     63          1           0       -1.353809   -1.513798    3.584712
     64          1           0       -2.826620   -1.398237    4.514520
     65          1           0       -2.323991   -3.712091    3.694096
     66          1           0       -3.891734   -3.143060    3.148776
     67          1           0       -1.281153   -3.203469    1.549762
     68          1           0       -2.681792   -4.233977    1.285140
     69          1           0       -4.185076    1.860629    1.843437
     70          1           0       -5.487140    0.896668    1.218760
     71          1           0       -4.386885    0.513376    3.681853
     72          1           0       -4.968233   -0.877783    2.771148
     73          1           0       -5.037556   -2.390010    1.382142
     74          1           0       -4.649795   -3.419426    0.049225
     75          1           0       -5.274939   -1.984132   -1.516307
     76          1           0       -8.393190    0.870428   -0.209930
     77          1           0       -8.873097    0.503605   -1.878632
     78          1           0       -9.106396   -0.731687   -0.624980
     79          1           0       -3.875107    0.536909   -3.733998
     80          1           0       -5.324254    1.540473   -3.486748
     81          1           0       -5.414120   -0.203945   -3.273346
     82          1           0        0.082509    4.971461   -0.745070
     83          1           0       -0.652802    4.952729    0.855151
     84          1           0        1.128363    2.289105   -1.192261
     85          1           0        1.120223    4.689062    2.403601
     86          1           0        3.042369    3.432007    3.287396
     87          1           0        1.806855   -0.082292   -1.468507
     88          1           0        1.785822   -0.004518    2.098381
     89          1           0        2.858747   -1.268857    2.606736
     90          1           0        1.696933   -2.626340    1.196272
     91          1           0        0.886230   -1.258560    0.450879
     92          1           0        1.901739   -0.634634   -3.593825
     93          1           0        3.433041   -1.089221   -4.400105
     94          1           0        2.022974   -3.131426   -3.687996
     95          1           0        3.656487   -3.118362   -3.052088
     96          1           0        1.066761   -2.570780   -1.600170
     97          1           0        2.269120   -3.790593   -1.223120
     98          1           0        5.429167    1.101351   -1.123011
     99          1           0        4.417545    2.529890   -1.151255
    100          1           0        4.656593    1.154038   -3.432355
    101          1           0        2.960871    1.517646   -2.926694
    102          1           0        4.815138   -2.603776   -0.758731
    103          1           0        4.012546   -3.119095    0.672889
    104          1           0        5.002118   -1.566429    1.915130
    105          1           0        8.228824   -0.829460   -1.195479
    106          1           0        8.653504   -2.511238   -0.823821
    107          1           0        8.887618   -1.269679    0.423044
    108          1           0        5.226518    0.242903    3.486662
    109          1           0        4.884419    1.943144    3.772143
    110          1           0        3.585187    0.738827    3.939279
 ---------------------------------------------------------------------

 SCF Done:  E(RHF) =  -2300.20092710     A.U. after   16 cycles

      1  C    Isotropic =   124.0328   Anisotropy =   155.4557

      2  C    Isotropic =   118.1499   Anisotropy =   162.3925

      3  C    Isotropic =   118.9355   Anisotropy =   151.7033

      4  C    Isotropic =   133.9573   Anisotropy =   143.1061

      5  C    Isotropic =   109.1899   Anisotropy =   128.0555

      6  C    Isotropic =   117.6605   Anisotropy =   141.2521

      7  N    Isotropic =   274.1972   Anisotropy =    81.9482

      8  C    Isotropic =   196.0423   Anisotropy =    13.0193

      9  C    Isotropic =   181.1430   Anisotropy =    44.1062

     10  C    Isotropic =   190.4164   Anisotropy =    28.1201

     11  C    Isotropic =   213.8411   Anisotropy =    19.9682

     12  C    Isotropic =   213.0874   Anisotropy =    19.5340

     13  C    Isotropic =   213.8556   Anisotropy =     9.3886

     14  N    Isotropic =   303.4160   Anisotropy =    55.1509

     15  C    Isotropic =   205.5002   Anisotropy =    33.2248

     16  C    Isotropic =   224.3508   Anisotropy =     7.8580

     17  C    Isotropic =   215.4372   Anisotropy =    18.5399

     18  C    Isotropic =   210.8086   Anisotropy =    37.3482

     19  C    Isotropic =   199.8333   Anisotropy =    43.3464

     20  C    Isotropic =   212.2807   Anisotropy =    22.3571

     21  C    Isotropic =   209.1672   Anisotropy =    11.5372

     22  C    Isotropic =    96.6818   Anisotropy =    98.9535

     23  O    Isotropic =  -135.0652   Anisotropy =   887.8851

     24  O    Isotropic =   283.9642   Anisotropy =   139.5297

     25  C    Isotropic =   197.3246   Anisotropy =    58.1087

     26  C    Isotropic =   209.9343   Anisotropy =    41.0968

     27  C    Isotropic =   206.1606   Anisotropy =    20.3563

     28  C    Isotropic =   118.4723   Anisotropy =   162.4883

     29  C    Isotropic =   127.7160   Anisotropy =   151.8090

     30  C    Isotropic =   118.5477   Anisotropy =   152.1988

     31  C    Isotropic =   133.6489   Anisotropy =   144.8782

     32  C    Isotropic =   107.9517   Anisotropy =   131.5808

     33  C    Isotropic =   117.7671   Anisotropy =   143.3902

     34  N    Isotropic =   272.6382   Anisotropy =    84.0398

     35  C    Isotropic =   200.9528   Anisotropy =    15.5925

     36  C    Isotropic =   179.1655   Anisotropy =    39.3891

     37  C    Isotropic =   183.6734   Anisotropy =    43.4454

     38  C    Isotropic =   210.9505   Anisotropy =    25.2897

     39  C    Isotropic =   212.7988   Anisotropy =    19.5529

     40  C    Isotropic =   211.6036   Anisotropy =     9.9121

     41  N    Isotropic =   235.3223   Anisotropy =    24.1723

     42  C    Isotropic =   193.9038   Anisotropy =    49.2780

     43  C    Isotropic =   219.3535   Anisotropy =     9.2230

     44  C    Isotropic =   214.9248   Anisotropy =    20.8400

     45  C    Isotropic =   207.4556   Anisotropy =    35.0403

     46  C    Isotropic =   190.9016   Anisotropy =    51.9906

     47  C    Isotropic =   211.7747   Anisotropy =    26.6631

     48  C    Isotropic =   207.2157   Anisotropy =    18.4057

     49  C    Isotropic =    98.3545   Anisotropy =    96.9286

     50  O    Isotropic =  -132.4571   Anisotropy =   877.9754

     51  O    Isotropic =   285.8597   Anisotropy =   142.4295

     52  C    Isotropic =   197.4675   Anisotropy =    57.4889

     53  C    Isotropic =   210.9190   Anisotropy =    41.4309

     54  O    Isotropic =    76.0715   Anisotropy =   404.4627

     55  H    Isotropic =    26.5579   Anisotropy =    15.7518

     56  H    Isotropic =    25.6957   Anisotropy =     5.8381

     57  H    Isotropic =    26.5454   Anisotropy =     7.7042

     58  H    Isotropic =    32.0233   Anisotropy =    14.9352

     59  H    Isotropic =    33.1532   Anisotropy =     9.8413

     60  H    Isotropic =    32.2292   Anisotropy =    12.4031

     61  H    Isotropic =    32.4283   Anisotropy =    13.4496

     62  H    Isotropic =    32.8120   Anisotropy =    18.5567

     63  H    Isotropic =    32.0887   Anisotropy =    14.1432

     64  H    Isotropic =    31.9329   Anisotropy =    15.5447

     65  H    Isotropic =    32.7246   Anisotropy =    17.2894

     66  H    Isotropic =    32.6069   Anisotropy =    12.4802

     67  H    Isotropic =    32.7960   Anisotropy =    14.1195

     68  H    Isotropic =    32.5475   Anisotropy =    14.0378

     69  H    Isotropic =    32.4576   Anisotropy =    11.4669

     70  H    Isotropic =    32.9937   Anisotropy =    12.0088

     71  H    Isotropic =    31.9368   Anisotropy =    16.2739

     72  H    Isotropic =    32.0250   Anisotropy =    10.2595

     73  H    Isotropic =    31.4061   Anisotropy =    10.4576

     74  H    Isotropic =    32.2617   Anisotropy =    14.5217

     75  H    Isotropic =    31.2495   Anisotropy =    12.2422

     76  H    Isotropic =    30.6437   Anisotropy =     8.0658

     77  H    Isotropic =    30.5393   Anisotropy =    12.1496

     78  H    Isotropic =    30.5703   Anisotropy =    11.8937

     79  H    Isotropic =    31.9156   Anisotropy =    10.8217

     80  H    Isotropic =    30.7073   Anisotropy =    14.8469

     81  H    Isotropic =    30.8789   Anisotropy =    10.7996

     82  H    Isotropic =    30.0889   Anisotropy =    11.5419

     83  H    Isotropic =    30.0412   Anisotropy =    11.5903

     84  H    Isotropic =    27.1379   Anisotropy =    14.2496

     85  H    Isotropic =    25.5768   Anisotropy =     5.8871

     86  H    Isotropic =    26.3648   Anisotropy =     7.2443

     87  H    Isotropic =    32.1757   Anisotropy =     9.4025

     88  H    Isotropic =    33.0820   Anisotropy =     8.4998

     89  H    Isotropic =    32.0802   Anisotropy =    11.6610

     90  H    Isotropic =    32.2654   Anisotropy =    13.4460

     91  H    Isotropic =    33.0934   Anisotropy =    19.2844

     92  H    Isotropic =    32.2758   Anisotropy =    10.4672

     93  H    Isotropic =    30.9511   Anisotropy =    14.8546

     94  H    Isotropic =    32.3956   Anisotropy =    16.3506

     95  H    Isotropic =    31.1032   Anisotropy =    14.0352

     96  H    Isotropic =    32.8403   Anisotropy =    15.5808

     97  H    Isotropic =    32.1539   Anisotropy =    13.4819

     98  H    Isotropic =    31.2999   Anisotropy =    12.4112

     99  H    Isotropic =    32.6706   Anisotropy =    11.5230

    100  H    Isotropic =    31.0391   Anisotropy =    15.5996

    101  H    Isotropic =    31.8902   Anisotropy =    10.5923

    102  H    Isotropic =    29.8832   Anisotropy =    11.9665

    103  H    Isotropic =    31.7863   Anisotropy =    13.5341

    104  H    Isotropic =    31.3703   Anisotropy =    12.2508

    105  H    Isotropic =    30.5570   Anisotropy =     7.6402

    106  H    Isotropic =    30.6315   Anisotropy =    12.6022

    107  H    Isotropic =    30.5796   Anisotropy =    11.7272

    108  H    Isotropic =    31.4460   Anisotropy =    11.8841

    109  H    Isotropic =    30.7131   Anisotropy =    15.2865

    110  H    Isotropic =    31.8581   Anisotropy =    10.7027

 The electronic state is 1-A.
 Alpha  occ. eigenvalues --  -20.30793 -20.28570 -20.24811 -20.22605 -19.92298
 Alpha  occ. eigenvalues --  -15.48379 -15.33785 -15.33418 -15.30690 -11.16708
 Alpha  occ. eigenvalues --  -11.14821 -11.10693 -11.09905 -11.09714 -11.09386
 Alpha  occ. eigenvalues --  -11.09323 -11.08868 -11.08790 -11.08221 -11.07960
 Alpha  occ. eigenvalues --  -11.07334 -11.07022 -11.06673 -11.06493 -11.06441
 Alpha  occ. eigenvalues --  -11.06234 -11.05903 -11.05806 -11.05784 -11.05743
 Alpha  occ. eigenvalues --  -11.05634 -11.05435 -11.05021 -11.04732 -11.04639
 Alpha  occ. eigenvalues --  -11.04560 -11.04442 -11.04379 -11.04375 -11.04342
 Alpha  occ. eigenvalues --  -11.04117 -11.03818 -11.03728 -11.03311 -11.02216
 Alpha  occ. eigenvalues --  -11.02193 -11.02188 -11.01993 -11.01896 -11.01886
 Alpha  occ. eigenvalues --  -11.01807 -11.01648 -11.01495 -11.01434  -1.38030
 Alpha  occ. eigenvalues --   -1.35818  -1.29757  -1.27834  -1.25568  -1.21673
 Alpha  occ. eigenvalues --   -1.20859  -1.19044  -1.10664  -1.09933  -1.09000
 Alpha  occ. eigenvalues --   -1.07646  -1.05945  -1.05091  -1.02959  -1.00986
 Alpha  occ. eigenvalues --   -0.99338  -0.98900  -0.98669  -0.97551  -0.97051
 Alpha  occ. eigenvalues --   -0.96683  -0.95369  -0.94698  -0.94106  -0.92415
 Alpha  occ. eigenvalues --   -0.91854  -0.91726  -0.89683  -0.89403  -0.88084
 Alpha  occ. eigenvalues --   -0.86668  -0.85013  -0.82853  -0.82207  -0.81327
 Alpha  occ. eigenvalues --   -0.80519  -0.79830  -0.78443  -0.77917  -0.77614
 Alpha  occ. eigenvalues --   -0.77323  -0.74596  -0.74201  -0.72863  -0.72292
 Alpha  occ. eigenvalues --   -0.71398  -0.70432  -0.69608  -0.68448  -0.66159
 Alpha  occ. eigenvalues --   -0.65318  -0.65058  -0.64705  -0.63748  -0.63012
 Alpha  occ. eigenvalues --   -0.62622  -0.62463  -0.61668  -0.61458  -0.61321
 Alpha  occ. eigenvalues --   -0.60816  -0.59941  -0.59241  -0.58938  -0.58601
 Alpha  occ. eigenvalues --   -0.58403  -0.58321  -0.57969  -0.57939  -0.57425
 Alpha  occ. eigenvalues --   -0.57000  -0.56875  -0.56224  -0.55713  -0.55351
 Alpha  occ. eigenvalues --   -0.55078  -0.54872  -0.54749  -0.54608  -0.54421
 Alpha  occ. eigenvalues --   -0.54126  -0.53614  -0.53332  -0.53256  -0.52259
 Alpha  occ. eigenvalues --   -0.51962  -0.51716  -0.51125  -0.50963  -0.50439
 Alpha  occ. eigenvalues --   -0.50113  -0.49648  -0.49308  -0.49276  -0.48608
 Alpha  occ. eigenvalues --   -0.48442  -0.48275  -0.47806  -0.47635  -0.47282
 Alpha  occ. eigenvalues --   -0.47039  -0.46240  -0.46045  -0.45861  -0.45251
 Alpha  occ. eigenvalues --   -0.45059  -0.44933  -0.44658  -0.44401  -0.43872
 Alpha  occ. eigenvalues --   -0.43624  -0.43396  -0.43337  -0.42806  -0.42673
 Alpha  occ. eigenvalues --   -0.42443  -0.42257  -0.41561  -0.40957  -0.40729
 Alpha  occ. eigenvalues --   -0.40509  -0.40076  -0.38965  -0.38588  -0.38397
 Alpha  occ. eigenvalues --   -0.37665  -0.37516  -0.36696  -0.35665  -0.34411
 Alpha  occ. eigenvalues --   -0.33504  -0.33235  -0.32251  -0.31278  -0.30575
 Alpha  occ. eigenvalues --   -0.27424  -0.27065  -0.26251  -0.21308  -0.20386
 Alpha  occ. eigenvalues --   -0.16232  -0.15709
 Alpha virt. eigenvalues --    0.26688   0.27407   0.27664   0.28307   0.30282
 Alpha virt. eigenvalues --    0.32782   0.45556   0.47882   0.48508   0.48540
 Alpha virt. eigenvalues --    0.49142   0.49785   0.50004   0.51310   0.51975

 Mulliken charges:
               1
     1  C   -0.074425
     2  C   -0.001604
     3  C   -0.064048
     4  C   -0.091322
     5  C    0.088876
     6  C   -0.013750
     7  N   -0.286534
     8  C    0.018246
     9  C    0.128449
    10  C    0.041192
    11  C   -0.114657
    12  C   -0.106079
    13  C    0.027904
    14  N   -0.291305
    15  C   -0.014494
    16  C   -0.108295
    17  C   -0.102131
    18  C   -0.105354
    19  C   -0.019164
    20  C   -0.110481
    21  C   -0.066392
    22  C    0.319620
    23  O   -0.276225
    24  O   -0.255611
    25  C   -0.055823
    26  C   -0.078755
    27  C   -0.110356
    28  C    0.000955
    29  C   -0.079315
    30  C   -0.061934
    31  C   -0.090052
    32  C    0.095195
    33  C   -0.013503
    34  N   -0.280853
    35  C    0.015211
    36  C    0.134896
    37  C    0.039712
    38  C   -0.116370
    39  C   -0.105527
    40  C    0.039930
    41  N   -0.081145
    42  C   -0.003176
    43  C   -0.097170
    44  C   -0.099328
    45  C   -0.098135
    46  C   -0.004759
    47  C   -0.098471
    48  C   -0.058512
    49  C    0.327393
    50  O   -0.275163
    51  O   -0.255962
    52  C   -0.054052
    53  C   -0.077541
    54  O   -0.461336
    55  H    0.068378
    56  H    0.055464
    57  H    0.057878
    58  H    0.054668
    59  H    0.051237
    60  H    0.050556
    61  H    0.048635
    62  H    0.048050
    63  H    0.053319
    64  H    0.062191
    65  H    0.053859
    66  H    0.050999
    67  H    0.049756
    68  H    0.051609
    69  H    0.064012
    70  H    0.063515
    71  H    0.057775
    72  H    0.051274
    73  H    0.068623
    74  H    0.051431
    75  H    0.064761
    76  H    0.075009
    77  H    0.077397
    78  H    0.072539
    79  H    0.054016
    80  H    0.072422
    81  H    0.076923
    82  H    0.059530
    83  H    0.061789
    84  H    0.054575
    85  H    0.056997
    86  H    0.060744
    87  H    0.053815
    88  H    0.056232
    89  H    0.049341
    90  H    0.052261
    91  H    0.045726
    92  H    0.055288
    93  H    0.084840
    94  H    0.057631
    95  H    0.081282
    96  H    0.045692
    97  H    0.058486
    98  H    0.095873
    99  H    0.068000
   100  H    0.089727
   101  H    0.056384
   102  H    0.102021
   103  H    0.044659
   104  H    0.062092
   105  H    0.078229
   106  H    0.074089
   107  H    0.067472
   108  H    0.072061
   109  H    0.075512
   110  H    0.054889
 Sum of Mulliken charges =  -0.00000

 Dipole moment (field-independent basis, Debye):
    X=             -3.9467    Y=             -1.6472    Z=             -1.4282  Tot=              4.5088
 Quadrupole moment (field-independent basis, Debye-Ang):
   XX=           -322.8984   YY=           -299.0969   ZZ=           -289.6742
   XY=              1.0007   XZ=             15.0773   YZ=             -4.2419

 Summary of Natural Population Analysis:

                                       Natural Population
                Natural  -----------------------------------------------
    Atom  No    Charge         Core      Valence    Rydberg      Total
 -----------------------------------------------------------------------
      C    1   -0.05562      1.99993     4.05569    0.00000     6.05562
      C    2    0.01248      1.99990     3.98762    0.00000     5.98752
      C    3   -0.03595      1.99994     4.03600    0.00000     6.03595
      C    4   -0.08846      1.99993     4.08853    0.00000     6.08846
      C    5    0.11204      1.99985     3.88811    0.00000     5.88796
      C    6   -0.02522      1.99990     4.02532    0.00000     6.02522
      N    7   -0.27502      1.99998     5.27504    0.00000     7.27502
      C    8    0.02004      1.99996     3.98000    0.00000     5.97996
      C    9    0.17198      1.99996     3.82806    0.00000     5.82802
      C   10    0.07469      1.99993     3.92538    0.00000     5.92531
      C   11   -0.08475      1.99994     4.08481    0.00000     6.08475
      C   12   -0.07438      1.99996     4.07442    0.00000     6.07438
      C   13    0.05019      1.99998     3.94983    0.00000     5.94981
      N   14   -0.27975      1.99999     5.27976    0.00000     7.27975
      C   15    0.03900      1.99994     3.96106    0.00000     5.96100
      C   16   -0.07474      1.99997     4.07477    0.00000     6.07474
      C   17   -0.06833      1.99996     4.06837    0.00000     6.06833
      C   18   -0.07549      1.99995     4.07554    0.00000     6.07549
      C   19    0.03424      1.99994     3.96582    0.00000     5.96576
      C   20   -0.07362      1.99992     4.07370    0.00000     6.07362
      C   21   -0.08414      1.99994     4.08420    0.00000     6.08414
      C   22    0.40261      1.99991     3.59748    0.00000     5.59739
      O   23   -0.31030      1.99999     6.31032    0.00000     8.31030
      O   24   -0.26717      1.99999     6.26718    0.00000     8.26717
      C   25    0.03463      1.99984     3.96553    0.00000     5.96537
      C   26   -0.01610      1.99992     4.01618    0.00000     6.01610
      C   27   -0.08713      1.99995     4.08718    0.00000     6.08713
      C   28    0.01545      1.99991     3.98465    0.00000     5.98455
      C   29   -0.06348      1.99992     4.06356    0.00000     6.06348
      C   30   -0.03372      1.99994     4.03378    0.00000     6.03372
      C   31   -0.08840      1.99993     4.08847    0.00000     6.08840
      C   32    0.11944      1.99985     3.88071    0.00000     5.88056
      C   33   -0.02196      1.99990     4.02206    0.00000     6.02196
      N   34   -0.27106      1.99998     5.27108    0.00000     7.27106
      C   35    0.01089      1.99996     3.98915    0.00000     5.98911
      C   36    0.17897      1.99996     3.82107    0.00000     5.82103
      C   37    0.06899      1.99991     3.93110    0.00000     5.93101
      C   38   -0.08477      1.99993     4.08484    0.00000     6.08477
      C   39   -0.07453      1.99996     4.07458    0.00000     6.07453
      C   40    0.05874      1.99998     3.94128    0.00000     5.94126
      N   41    0.03327      1.99999     4.96675    0.00000     6.96673
      C   42    0.05010      1.99992     3.94998    0.00000     5.94990
      C   43   -0.06341      1.99995     4.06346    0.00000     6.06341
      C   44   -0.06253      1.99994     4.06258    0.00000     6.06253
      C   45   -0.06735      1.99993     4.06742    0.00000     6.06735
      C   46    0.04603      1.99993     3.95404    0.00000     5.95397
      C   47   -0.06040      1.99991     4.06049    0.00000     6.06040
      C   48   -0.07394      1.99994     4.07400    0.00000     6.07394
      C   49    0.40958      1.99991     3.59052    0.00000     5.59042
      O   50   -0.31055      1.99999     6.31057    0.00000     8.31055
      O   51   -0.26832      1.99999     6.26832    0.00000     8.26832
      C   52    0.03623      1.99984     3.96393    0.00000     5.96377
      C   53   -0.01570      1.99993     4.01577    0.00000     6.01570
      O   54   -0.51397      2.00000     6.51397    0.00000     8.51397
      H   55    0.04206      0.00000     0.95794    0.00000     0.95794
      H   56    0.02841      0.00000     0.97159    0.00000     0.97159
      H   57    0.03389      0.00000     0.96611    0.00000     0.96611
      H   58    0.02356      0.00000     0.97644    0.00000     0.97644
      H   59    0.02864      0.00000     0.97136    0.00000     0.97136
      H   60    0.02843      0.00000     0.97157    0.00000     0.97157
      H   61    0.02775      0.00000     0.97225    0.00000     0.97225
      H   62    0.02714      0.00000     0.97286    0.00000     0.97286
      H   63    0.02633      0.00000     0.97367    0.00000     0.97367
      H   64    0.03634      0.00000     0.96366    0.00000     0.96366
      H   65    0.03402      0.00000     0.96598    0.00000     0.96598
      H   66    0.03037      0.00000     0.96963    0.00000     0.96963
      H   67    0.02901      0.00000     0.97099    0.00000     0.97099
      H   68    0.03069      0.00000     0.96931    0.00000     0.96931
      H   69    0.04268      0.00000     0.95732    0.00000     0.95732
      H   70    0.04092      0.00000     0.95908    0.00000     0.95908
      H   71    0.03148      0.00000     0.96852    0.00000     0.96852
      H   72    0.02223      0.00000     0.97777    0.00000     0.97777
      H   73    0.04326      0.00000     0.95674    0.00000     0.95674
      H   74    0.02922      0.00000     0.97078    0.00000     0.97078
      H   75    0.04190      0.00000     0.95810    0.00000     0.95810
      H   76    0.04348      0.00000     0.95652    0.00000     0.95652
      H   77    0.04630      0.00000     0.95370    0.00000     0.95370
      H   78    0.04098      0.00000     0.95902    0.00000     0.95902
      H   79    0.02874      0.00000     0.97126    0.00000     0.97126
      H   80    0.04800      0.00000     0.95200    0.00000     0.95200
      H   81    0.05250      0.00000     0.94750    0.00000     0.94750
      H   82    0.04076      0.00000     0.95924    0.00000     0.95924
      H   83    0.04288      0.00000     0.95712    0.00000     0.95712
      H   84    0.02992      0.00000     0.97008    0.00000     0.97008
      H   85    0.02967      0.00000     0.97033    0.00000     0.97033
      H   86    0.03663      0.00000     0.96337    0.00000     0.96337
      H   87    0.02171      0.00000     0.97829    0.00000     0.97829
      H   88    0.03242      0.00000     0.96758    0.00000     0.96758
      H   89    0.02662      0.00000     0.97338    0.00000     0.97338
      H   90    0.03147      0.00000     0.96853    0.00000     0.96853
      H   91    0.02481      0.00000     0.97519    0.00000     0.97519
      H   92    0.02475      0.00000     0.97525    0.00000     0.97525
      H   93    0.05325      0.00000     0.94675    0.00000     0.94675
      H   94    0.03588      0.00000     0.96412    0.00000     0.96412
      H   95    0.05653      0.00000     0.94347    0.00000     0.94347
      H   96    0.02359      0.00000     0.97641    0.00000     0.97641
      H   97    0.03617      0.00000     0.96383    0.00000     0.96383
      H   98    0.06817      0.00000     0.93183    0.00000     0.93183
      H   99    0.04499      0.00000     0.95501    0.00000     0.95501
      H  100    0.05823      0.00000     0.94177    0.00000     0.94177
      H  101    0.02604      0.00000     0.97396    0.00000     0.97396
      H  102    0.07270      0.00000     0.92730    0.00000     0.92730
      H  103    0.02118      0.00000     0.97882    0.00000     0.97882
      H  104    0.03897      0.00000     0.96103    0.00000     0.96103
      H  105    0.04653      0.00000     0.95347    0.00000     0.95347
      H  106    0.04331      0.00000     0.95669    0.00000     0.95669
      H  107    0.03622      0.00000     0.96378    0.00000     0.96378
      H  108    0.04825      0.00000     0.95175    0.00000     0.95175
      H  109    0.05122      0.00000     0.94878    0.00000     0.94878
      H  110    0.02941      0.00000     0.97059    0.00000     0.97059
 =======================================================================
   * Total *   -0.00000    107.99664   286.00336    0.00000   394.00000

 Normal termination of Gaussian 16 at Thu May 30 10:09:09 2024.
