 Gaussian 16, Revision B.01,
 Gaussian 16:  ES64L-G16RevB.01 20-Dec-2017

 ----------------------------------------------
 # nmr=giao hf/sto-3g pop=nbo geom=connectivity
 ----------------------------------------------

 -----------------
 Pleiokomenine_C_2
 -----------------
 Symbolic Z-matrix:
 Charge =  0 Multiplicity = 1

                         Standard orientation:
 ---------------------------------------------------------------------
 Center     Atomic      Atomic             Coordinates (Angstroms)
 Number     Number       Type             X           Y           Z
 ---------------------------------------------------------------------
      1          6           0       -1.786929    1.644405   -1.524470
      2          6           0       -1.466374    2.993548   -1.727598
      3          6           0       -2.301228    3.988505   -1.178132
      4          6           0       -3.448785    3.653869   -0.444068
      5          6           0       -3.757762    2.318752   -0.250942
      6          6           0       -2.906942    1.330653   -0.771749
      7          7           0       -4.867355    1.761978    0.438584
      8          6           0       -3.377880   -0.018264   -0.291804
      9          6           0       -4.892048    0.363671   -0.063828
     10          6           0       -3.291702   -1.245274   -1.209861
     11          6           0       -5.645476    0.322257   -1.463703
     12          6           0       -5.609869   -1.086005   -2.072994
     13          6           0       -4.677349   -1.976868   -1.227743
     14          7           0       -2.155270   -2.018807   -0.695898
     15          6           0       -2.085179   -3.394210   -1.170512
     16          6           0       -3.408258   -4.159253   -1.154512
     17          6           0       -4.518059   -3.371040   -1.850471
     18          6           0       -2.484613   -0.378870    0.920983
     19          6           0       -2.114113   -1.845696    0.749275
     20          6           0       -5.361992   -2.075026    0.178495
     21          6           0       -5.632915   -0.675388    0.795897
     22          6           0       -5.368372   -0.645096    2.290812
     23          8           0       -4.719262   -1.481409    2.906921
     24          8           0       -6.017005    0.401736    2.873606
     25          6           0       -5.790237    0.522786    4.277634
     26          6           0       -6.076658    2.568691    0.491576
     27          6           0       -0.203157    3.370423   -2.472601
     28          6           0        1.051119    3.146237   -1.654510
     29          6           0        1.621148    1.867186   -1.583379
     30          6           0        1.625954    4.205175   -0.918630
     31          6           0        2.745052    4.002483   -0.098664
     32          6           0        3.268487    2.727666    0.007797
     33          6           0        2.708550    1.674469   -0.749245
     34          7           0        4.312889    2.265090    0.855640
     35          6           0        3.533679    0.433288   -0.494561
     36          6           0        3.987934    0.822142    0.956603
     37          6           0        2.922742   -0.955477   -0.419482
     38          6           0        2.734769    0.684161    1.968404
     39          6           0        2.059058   -0.685182    1.860508
     40          6           0        2.922513   -1.597259    0.975210
     41          7           0        3.707866   -1.808265   -1.403730
     42          6           0        2.907633   -3.038372   -1.678225
     43          6           0        2.779347   -3.835728   -0.364612
     44          6           0        2.291356   -3.005293    0.844862
     45          6           0        4.472772    0.357585   -1.732230
     46          6           0        3.939505   -0.854754   -2.516837
     47          6           0        4.342011   -1.580369    1.639851
     48          6           0        5.016632   -0.159200    1.563116
     49          6           0        6.411578   -0.156393    0.955657
     50          8           0        6.921681    0.774696    0.346268
     51          8           0        7.096126   -1.279125    1.326049
     52          6           0        8.395928   -1.382654    0.748090
     53          6           0        4.658206    3.052950    2.022418
     54          8           0        4.953292   -2.206399   -0.983573
     55          1           0       -1.152513    0.849973   -1.902902
     56          1           0       -2.053048    5.039606   -1.309931
     57          1           0       -4.067177    4.441240   -0.028600
     58          1           0       -3.038146   -0.947972   -2.236593
     59          1           0       -6.692031    0.632287   -1.347949
     60          1           0       -5.211283    1.030690   -2.180035
     61          1           0       -6.623330   -1.505692   -2.104795
     62          1           0       -5.269054   -1.027996   -3.114182
     63          1           0       -1.721456   -3.366653   -2.206012
     64          1           0       -1.324834   -3.953028   -0.611185
     65          1           0       -3.275147   -5.119988   -1.665755
     66          1           0       -3.693539   -4.395536   -0.123752
     67          1           0       -4.270169   -3.277561   -2.915868
     68          1           0       -5.459067   -3.931366   -1.796812
     69          1           0       -2.930720   -0.162461    1.890991
     70          1           0       -1.545593    0.193807    0.906892
     71          1           0       -1.112390   -2.041013    1.145284
     72          1           0       -2.805674   -2.499737    1.282041
     73          1           0       -4.795666   -2.718495    0.851904
     74          1           0       -6.329579   -2.585832    0.068568
     75          1           0       -6.717544   -0.505196    0.712793
     76          1           0       -4.721927    0.636857    4.487082
     77          1           0       -6.199926   -0.343577    4.806126
     78          1           0       -6.308443    1.419522    4.628201
     79          1           0       -6.376663    2.924945   -0.500401
     80          1           0       -5.930501    3.434748    1.145874
     81          1           0       -6.909387    1.992419    0.906187
     82          1           0       -0.145338    2.789774   -3.402892
     83          1           0       -0.252700    4.418414   -2.795442
     84          1           0        1.211561    1.046034   -2.160577
     85          1           0        1.189284    5.200508   -0.969187
     86          1           0        3.160230    4.831645    0.461904
     87          1           0        1.898247   -0.923123   -0.819517
     88          1           0        1.972105    1.458899    1.823211
     89          1           0        3.083323    0.835042    2.999656
     90          1           0        1.055486   -0.565534    1.432999
     91          1           0        1.919361   -1.114597    2.860087
     92          1           0        3.446377   -3.606574   -2.443752
     93          1           0        1.934480   -2.725576   -2.070617
     94          1           0        3.754079   -4.270191   -0.109942
     95          1           0        2.100457   -4.682063   -0.521205
     96          1           0        2.445644   -3.577867    1.767371
     97          1           0        1.204362   -2.894324    0.734492
     98          1           0        4.477670    1.246911   -2.373039
     99          1           0        5.509304    0.172565   -1.452998
    100          1           0        4.664778   -1.284501   -3.213736
    101          1           0        2.979870   -0.666948   -3.008781
    102          1           0        4.978663   -2.378671    1.253733
    103          1           0        4.226883   -1.837295    2.703350
    104          1           0        5.213120    0.150968    2.600965
    105          1           0        8.341710   -1.324227   -0.343817
    106          1           0        9.052453   -0.603187    1.146951
    107          1           0        8.810875   -2.357159    1.019995
    108          1           0        5.064492    4.025473    1.724482
    109          1           0        5.436352    2.550594    2.605371
    110          1           0        3.795651    3.219663    2.676493
 ---------------------------------------------------------------------

 SCF Done:  E(RHF) =  -2300.20236509     A.U. after   16 cycles

      1  C    Isotropic =   125.2377   Anisotropy =   150.5445

      2  C    Isotropic =   120.1986   Anisotropy =   156.9688

      3  C    Isotropic =   119.4893   Anisotropy =   150.2698

      4  C    Isotropic =   133.6658   Anisotropy =   142.5577

      5  C    Isotropic =   109.4000   Anisotropy =   126.8675

      6  C    Isotropic =   117.6725   Anisotropy =   140.4907

      7  N    Isotropic =   274.4140   Anisotropy =    82.4510

      8  C    Isotropic =   196.1354   Anisotropy =    12.9894

      9  C    Isotropic =   181.1171   Anisotropy =    45.0087

     10  C    Isotropic =   190.3464   Anisotropy =    30.5345

     11  C    Isotropic =   213.8044   Anisotropy =    19.3734

     12  C    Isotropic =   212.7647   Anisotropy =    21.4508

     13  C    Isotropic =   213.5956   Anisotropy =     8.2600

     14  N    Isotropic =   301.8885   Anisotropy =    54.3250

     15  C    Isotropic =   205.2697   Anisotropy =    33.3713

     16  C    Isotropic =   224.2291   Anisotropy =     9.5149

     17  C    Isotropic =   215.3530   Anisotropy =    19.4284

     18  C    Isotropic =   210.6574   Anisotropy =    36.9689

     19  C    Isotropic =   199.9667   Anisotropy =    39.9106

     20  C    Isotropic =   212.1712   Anisotropy =    20.9966

     21  C    Isotropic =   209.1166   Anisotropy =     9.5364

     22  C    Isotropic =    96.4378   Anisotropy =    98.4226

     23  O    Isotropic =  -134.4782   Anisotropy =   888.5518

     24  O    Isotropic =   283.7648   Anisotropy =   139.9440

     25  C    Isotropic =   197.3757   Anisotropy =    57.1959

     26  C    Isotropic =   209.9649   Anisotropy =    42.1368

     27  C    Isotropic =   206.5595   Anisotropy =    15.0499

     28  C    Isotropic =   120.8249   Anisotropy =   156.8789

     29  C    Isotropic =   127.7296   Anisotropy =   146.0895

     30  C    Isotropic =   119.4909   Anisotropy =   151.8509

     31  C    Isotropic =   133.7518   Anisotropy =   143.8848

     32  C    Isotropic =   107.7305   Anisotropy =   131.0435

     33  C    Isotropic =   117.5017   Anisotropy =   142.2441

     34  N    Isotropic =   272.4552   Anisotropy =    84.2768

     35  C    Isotropic =   200.8398   Anisotropy =    16.5628

     36  C    Isotropic =   179.2505   Anisotropy =    40.1923

     37  C    Isotropic =   183.3460   Anisotropy =    42.3866

     38  C    Isotropic =   211.1078   Anisotropy =    23.5255

     39  C    Isotropic =   212.9945   Anisotropy =    18.4953

     40  C    Isotropic =   211.5089   Anisotropy =    10.4764

     41  N    Isotropic =   235.2466   Anisotropy =    24.1006

     42  C    Isotropic =   193.5967   Anisotropy =    49.8464

     43  C    Isotropic =   219.1457   Anisotropy =     8.6929

     44  C    Isotropic =   214.8047   Anisotropy =    21.1815

     45  C    Isotropic =   207.2815   Anisotropy =    34.3223

     46  C    Isotropic =   190.6662   Anisotropy =    52.0731

     47  C    Isotropic =   211.7067   Anisotropy =    26.9035

     48  C    Isotropic =   207.1923   Anisotropy =    17.9462

     49  C    Isotropic =    98.2132   Anisotropy =    97.0817

     50  O    Isotropic =  -132.6068   Anisotropy =   878.3280

     51  O    Isotropic =   285.8374   Anisotropy =   142.3962

     52  C    Isotropic =   197.4650   Anisotropy =    57.2811

     53  C    Isotropic =   211.0620   Anisotropy =    41.7137

     54  O    Isotropic =    74.8268   Anisotropy =   407.0684

     55  H    Isotropic =    25.7139   Anisotropy =    14.2022

     56  H    Isotropic =    25.7341   Anisotropy =     6.6138

     57  H    Isotropic =    26.6251   Anisotropy =     7.9929

     58  H    Isotropic =    31.5049   Anisotropy =     8.1069

     59  H    Isotropic =    32.1723   Anisotropy =    14.0762

     60  H    Isotropic =    32.8960   Anisotropy =     8.8094

     61  H    Isotropic =    32.3358   Anisotropy =    15.5520

     62  H    Isotropic =    32.5679   Anisotropy =    13.3933

     63  H    Isotropic =    31.8410   Anisotropy =    13.1625

     64  H    Isotropic =    31.8563   Anisotropy =    14.9802

     65  H    Isotropic =    32.6180   Anisotropy =    17.5108

     66  H    Isotropic =    32.5234   Anisotropy =    10.2272

     67  H    Isotropic =    32.6356   Anisotropy =    13.0013

     68  H    Isotropic =    32.4593   Anisotropy =    15.2111

     69  H    Isotropic =    33.1160   Anisotropy =    10.2853

     70  H    Isotropic =    32.8702   Anisotropy =    15.0310

     71  H    Isotropic =    32.0344   Anisotropy =    17.8597

     72  H    Isotropic =    31.9710   Anisotropy =     8.4061

     73  H    Isotropic =    31.4127   Anisotropy =     8.9047

     74  H    Isotropic =    32.2136   Anisotropy =    15.1309

     75  H    Isotropic =    31.2065   Anisotropy =    13.0016

     76  H    Isotropic =    30.7215   Anisotropy =     7.4167

     77  H    Isotropic =    30.6035   Anisotropy =    11.6998

     78  H    Isotropic =    30.5792   Anisotropy =    12.1776

     79  H    Isotropic =    31.9247   Anisotropy =    12.1504

     80  H    Isotropic =    30.7603   Anisotropy =    14.4211

     81  H    Isotropic =    30.9313   Anisotropy =    10.9739

     82  H    Isotropic =    30.0708   Anisotropy =     7.9155

     83  H    Isotropic =    29.8998   Anisotropy =    12.5175

     84  H    Isotropic =    25.9728   Anisotropy =    12.0627

     85  H    Isotropic =    25.7927   Anisotropy =     6.9188

     86  H    Isotropic =    26.5834   Anisotropy =     7.4992

     87  H    Isotropic =    31.5228   Anisotropy =    10.1393

     88  H    Isotropic =    33.5082   Anisotropy =     8.3235

     89  H    Isotropic =    32.2812   Anisotropy =    12.4950

     90  H    Isotropic =    33.0358   Anisotropy =    17.9362

     91  H    Isotropic =    32.3556   Anisotropy =    13.5170

     92  H    Isotropic =    30.7577   Anisotropy =    14.2287

     93  H    Isotropic =    31.7276   Anisotropy =    11.4511

     94  H    Isotropic =    30.9967   Anisotropy =    13.9166

     95  H    Isotropic =    32.2091   Anisotropy =    15.9190

     96  H    Isotropic =    32.0843   Anisotropy =    13.8460

     97  H    Isotropic =    32.4869   Anisotropy =    16.6224

     98  H    Isotropic =    32.5439   Anisotropy =    11.5370

     99  H    Isotropic =    31.2296   Anisotropy =    12.4185

    100  H    Isotropic =    30.8612   Anisotropy =    15.2321

    101  H    Isotropic =    31.4634   Anisotropy =    10.1795

    102  H    Isotropic =    29.8310   Anisotropy =    11.6008

    103  H    Isotropic =    31.7942   Anisotropy =    13.9312

    104  H    Isotropic =    31.4281   Anisotropy =    12.6131

    105  H    Isotropic =    30.5308   Anisotropy =     7.4587

    106  H    Isotropic =    30.5812   Anisotropy =    11.7618

    107  H    Isotropic =    30.6174   Anisotropy =    12.5280

    108  H    Isotropic =    30.8502   Anisotropy =    15.2897

    109  H    Isotropic =    31.5445   Anisotropy =    12.0804

    110  H    Isotropic =    32.0661   Anisotropy =    10.8903

 The electronic state is 1-A.
 Alpha  occ. eigenvalues --  -20.30821 -20.28387 -20.24805 -20.22399 -19.91947
 Alpha  occ. eigenvalues --  -15.47985 -15.33733 -15.33239 -15.31110 -11.16727
 Alpha  occ. eigenvalues --  -11.14614 -11.10716 -11.09670 -11.09469 -11.09118
 Alpha  occ. eigenvalues --  -11.09031 -11.08628 -11.08438 -11.08109 -11.07803
 Alpha  occ. eigenvalues --  -11.07449 -11.07404 -11.06646 -11.06535 -11.06208
 Alpha  occ. eigenvalues --  -11.06008 -11.05975 -11.05728 -11.05703 -11.05667
 Alpha  occ. eigenvalues --  -11.05488 -11.05010 -11.04679 -11.04556 -11.04515
 Alpha  occ. eigenvalues --  -11.04493 -11.04483 -11.04375 -11.04261 -11.04174
 Alpha  occ. eigenvalues --  -11.04027 -11.03870 -11.03405 -11.02971 -11.02237
 Alpha  occ. eigenvalues --  -11.02137 -11.02029 -11.01911 -11.01867 -11.01796
 Alpha  occ. eigenvalues --  -11.01748 -11.01655 -11.01473 -11.01339  -1.38041
 Alpha  occ. eigenvalues --   -1.35631  -1.29365  -1.27856  -1.25375  -1.21693
 Alpha  occ. eigenvalues --   -1.20641  -1.19233  -1.10297  -1.09948  -1.08939
 Alpha  occ. eigenvalues --   -1.07575  -1.05690  -1.05180  -1.02618  -1.01001
 Alpha  occ. eigenvalues --   -0.99277  -0.98608  -0.98548  -0.97408  -0.97113
 Alpha  occ. eigenvalues --   -0.96315  -0.95007  -0.94825  -0.94120  -0.92405
 Alpha  occ. eigenvalues --   -0.91832  -0.91537  -0.89549  -0.89225  -0.87909
 Alpha  occ. eigenvalues --   -0.86532  -0.84880  -0.82859  -0.82195  -0.80995
 Alpha  occ. eigenvalues --   -0.80235  -0.79935  -0.78113  -0.77993  -0.77593
 Alpha  occ. eigenvalues --   -0.77202  -0.74438  -0.74153  -0.72661  -0.72342
 Alpha  occ. eigenvalues --   -0.71413  -0.70296  -0.69681  -0.68171  -0.66195
 Alpha  occ. eigenvalues --   -0.65244  -0.64822  -0.64518  -0.63762  -0.62746
 Alpha  occ. eigenvalues --   -0.62510  -0.62302  -0.61533  -0.61344  -0.61159
 Alpha  occ. eigenvalues --   -0.60865  -0.60021  -0.59007  -0.58913  -0.58493
 Alpha  occ. eigenvalues --   -0.58353  -0.58131  -0.57640  -0.57617  -0.57357
 Alpha  occ. eigenvalues --   -0.57025  -0.56723  -0.56254  -0.55735  -0.55475
 Alpha  occ. eigenvalues --   -0.55000  -0.54852  -0.54690  -0.54400  -0.54210
 Alpha  occ. eigenvalues --   -0.54156  -0.54114  -0.53512  -0.52652  -0.51997
 Alpha  occ. eigenvalues --   -0.51617  -0.51196  -0.50946  -0.50670  -0.50134
 Alpha  occ. eigenvalues --   -0.50057  -0.49750  -0.49219  -0.48968  -0.48616
 Alpha  occ. eigenvalues --   -0.48407  -0.48191  -0.47839  -0.47339  -0.46934
 Alpha  occ. eigenvalues --   -0.46454  -0.46316  -0.45799  -0.45752  -0.45162
 Alpha  occ. eigenvalues --   -0.45087  -0.44746  -0.44667  -0.44295  -0.43864
 Alpha  occ. eigenvalues --   -0.43775  -0.43148  -0.43084  -0.42845  -0.42731
 Alpha  occ. eigenvalues --   -0.42347  -0.41913  -0.41564  -0.41327  -0.40825
 Alpha  occ. eigenvalues --   -0.40270  -0.39826  -0.38734  -0.38567  -0.38049
 Alpha  occ. eigenvalues --   -0.37701  -0.37162  -0.36764  -0.35350  -0.34366
 Alpha  occ. eigenvalues --   -0.33527  -0.32982  -0.32274  -0.31087  -0.30391
 Alpha  occ. eigenvalues --   -0.27523  -0.27010  -0.26535  -0.21284  -0.20232
 Alpha  occ. eigenvalues --   -0.15897  -0.15374
 Alpha virt. eigenvalues --    0.26620   0.26995   0.27449   0.29319   0.30240
 Alpha virt. eigenvalues --    0.32970   0.45856   0.47983   0.48028   0.49262
 Alpha virt. eigenvalues --    0.49487   0.49942   0.50416   0.51645   0.51961

 Mulliken charges:
               1
     1  C   -0.074779
     2  C    0.000758
     3  C   -0.061621
     4  C   -0.089347
     5  C    0.089129
     6  C   -0.013085
     7  N   -0.286574
     8  C    0.017774
     9  C    0.128260
    10  C    0.039685
    11  C   -0.114915
    12  C   -0.105462
    13  C    0.027957
    14  N   -0.291754
    15  C   -0.015679
    16  C   -0.108218
    17  C   -0.102058
    18  C   -0.105202
    19  C   -0.021232
    20  C   -0.110579
    21  C   -0.066434
    22  C    0.319757
    23  O   -0.277161
    24  O   -0.255262
    25  C   -0.055796
    26  C   -0.078874
    27  C   -0.109520
    28  C    0.001603
    29  C   -0.078518
    30  C   -0.061111
    31  C   -0.089728
    32  C    0.095298
    33  C   -0.012685
    34  N   -0.280612
    35  C    0.015161
    36  C    0.134505
    37  C    0.039147
    38  C   -0.116186
    39  C   -0.105904
    40  C    0.040318
    41  N   -0.081520
    42  C   -0.003453
    43  C   -0.096695
    44  C   -0.099596
    45  C   -0.098077
    46  C   -0.004648
    47  C   -0.098731
    48  C   -0.058621
    49  C    0.327047
    50  O   -0.275507
    51  O   -0.255881
    52  C   -0.054013
    53  C   -0.077650
    54  O   -0.461696
    55  H    0.061781
    56  H    0.056250
    57  H    0.058442
    58  H    0.055764
    59  H    0.051169
    60  H    0.054744
    61  H    0.048812
    62  H    0.050448
    63  H    0.052176
    64  H    0.059899
    65  H    0.054450
    66  H    0.051466
    67  H    0.050160
    68  H    0.052239
    69  H    0.064550
    70  H    0.062394
    71  H    0.055192
    72  H    0.053064
    73  H    0.067694
    74  H    0.051748
    75  H    0.065227
    76  H    0.074748
    77  H    0.072498
    78  H    0.077570
    79  H    0.055500
    80  H    0.072205
    81  H    0.076357
    82  H    0.057144
    83  H    0.058106
    84  H    0.053207
    85  H    0.056489
    86  H    0.060303
    87  H    0.057319
    88  H    0.055393
    89  H    0.048914
    90  H    0.048901
    91  H    0.052778
    92  H    0.083612
    93  H    0.057774
    94  H    0.080318
    95  H    0.057094
    96  H    0.057780
    97  H    0.048700
    98  H    0.067426
    99  H    0.095412
   100  H    0.089170
   101  H    0.056195
   102  H    0.101807
   103  H    0.044616
   104  H    0.061824
   105  H    0.078099
   106  H    0.067234
   107  H    0.074019
   108  H    0.075028
   109  H    0.072075
   110  H    0.054694
 Sum of Mulliken charges =  -0.00000

 Dipole moment (field-independent basis, Debye):
    X=             -5.9229    Y=             -0.3115    Z=              0.0936  Tot=              5.9318
 Quadrupole moment (field-independent basis, Debye-Ang):
   XX=           -309.9565   YY=           -299.1687   ZZ=           -289.7360
   XY=              1.9807   XZ=              6.3290   YZ=              8.3382

 Summary of Natural Population Analysis:

                                       Natural Population
                Natural  -----------------------------------------------
    Atom  No    Charge         Core      Valence    Rydberg      Total
 -----------------------------------------------------------------------
      C    1   -0.05660      1.99993     4.05668    0.00000     6.05660
      C    2    0.01493      1.99990     3.98517    0.00000     5.98507
      C    3   -0.03338      1.99994     4.03344    0.00000     6.03338
      C    4   -0.08604      1.99993     4.08611    0.00000     6.08604
      C    5    0.11197      1.99985     3.88818    0.00000     5.88803
      C    6   -0.02442      1.99990     4.02452    0.00000     6.02442
      N    7   -0.27493      1.99998     5.27496    0.00000     7.27493
      C    8    0.01935      1.99996     3.98070    0.00000     5.98065
      C    9    0.17162      1.99996     3.82842    0.00000     5.82838
      C   10    0.07347      1.99993     3.92660    0.00000     5.92653
      C   11   -0.08518      1.99994     4.08524    0.00000     6.08518
      C   12   -0.07345      1.99996     4.07349    0.00000     6.07345
      C   13    0.05032      1.99998     3.94970    0.00000     5.94968
      N   14   -0.27960      1.99999     5.27961    0.00000     7.27960
      C   15    0.03806      1.99994     3.96201    0.00000     5.96194
      C   16   -0.07462      1.99997     4.07465    0.00000     6.07462
      C   17   -0.06841      1.99996     4.06845    0.00000     6.06841
      C   18   -0.07513      1.99995     4.07519    0.00000     6.07513
      C   19    0.03211      1.99994     3.96795    0.00000     5.96789
      C   20   -0.07379      1.99992     4.07387    0.00000     6.07379
      C   21   -0.08434      1.99994     4.08440    0.00000     6.08434
      C   22    0.40302      1.99991     3.59707    0.00000     5.59698
      O   23   -0.31134      1.99999     6.31135    0.00000     8.31134
      O   24   -0.26684      1.99999     6.26684    0.00000     8.26684
      C   25    0.03464      1.99984     3.96552    0.00000     5.96536
      C   26   -0.01622      1.99992     4.01630    0.00000     6.01622
      C   27   -0.08618      1.99996     4.08622    0.00000     6.08618
      C   28    0.01560      1.99990     3.98450    0.00000     5.98440
      C   29   -0.06279      1.99992     4.06286    0.00000     6.06279
      C   30   -0.03254      1.99994     4.03260    0.00000     6.03254
      C   31   -0.08787      1.99993     4.08794    0.00000     6.08787
      C   32    0.11967      1.99985     3.88048    0.00000     5.88033
      C   33   -0.02121      1.99990     4.02132    0.00000     6.02121
      N   34   -0.27077      1.99998     5.27079    0.00000     7.27077
      C   35    0.01088      1.99996     3.98916    0.00000     5.98912
      C   36    0.17865      1.99996     3.82139    0.00000     5.82135
      C   37    0.06837      1.99991     3.93172    0.00000     5.93163
      C   38   -0.08452      1.99993     4.08459    0.00000     6.08452
      C   39   -0.07529      1.99996     4.07533    0.00000     6.07529
      C   40    0.05918      1.99998     3.94084    0.00000     5.94082
      N   41    0.03280      1.99999     4.96721    0.00000     6.96720
      C   42    0.04987      1.99992     3.95021    0.00000     5.95013
      C   43   -0.06291      1.99995     4.06296    0.00000     6.06291
      C   44   -0.06293      1.99994     4.06299    0.00000     6.06293
      C   45   -0.06716      1.99993     4.06723    0.00000     6.06716
      C   46    0.04610      1.99993     3.95397    0.00000     5.95390
      C   47   -0.06058      1.99991     4.06068    0.00000     6.06058
      C   48   -0.07403      1.99994     4.07409    0.00000     6.07403
      C   49    0.40933      1.99991     3.59076    0.00000     5.59067
      O   50   -0.31090      1.99999     6.31091    0.00000     8.31090
      O   51   -0.26823      1.99999     6.26823    0.00000     8.26823
      C   52    0.03625      1.99984     3.96391    0.00000     5.96375
      C   53   -0.01584      1.99993     4.01592    0.00000     6.01584
      O   54   -0.51423      2.00000     6.51423    0.00000     8.51423
      H   55    0.03594      0.00000     0.96406    0.00000     0.96406
      H   56    0.02898      0.00000     0.97102    0.00000     0.97102
      H   57    0.03425      0.00000     0.96575    0.00000     0.96575
      H   58    0.02456      0.00000     0.97544    0.00000     0.97544
      H   59    0.02901      0.00000     0.97099    0.00000     0.97099
      H   60    0.03179      0.00000     0.96821    0.00000     0.96821
      H   61    0.02776      0.00000     0.97224    0.00000     0.97224
      H   62    0.02933      0.00000     0.97067    0.00000     0.97067
      H   63    0.02525      0.00000     0.97475    0.00000     0.97475
      H   64    0.03417      0.00000     0.96583    0.00000     0.96583
      H   65    0.03453      0.00000     0.96547    0.00000     0.96547
      H   66    0.03078      0.00000     0.96922    0.00000     0.96922
      H   67    0.02937      0.00000     0.97063    0.00000     0.97063
      H   68    0.03130      0.00000     0.96870    0.00000     0.96870
      H   69    0.04183      0.00000     0.95817    0.00000     0.95817
      H   70    0.04114      0.00000     0.95886    0.00000     0.95886
      H   71    0.02906      0.00000     0.97094    0.00000     0.97094
      H   72    0.02394      0.00000     0.97606    0.00000     0.97606
      H   73    0.04242      0.00000     0.95758    0.00000     0.95758
      H   74    0.02955      0.00000     0.97045    0.00000     0.97045
      H   75    0.04236      0.00000     0.95764    0.00000     0.95764
      H   76    0.04325      0.00000     0.95675    0.00000     0.95675
      H   77    0.04095      0.00000     0.95905    0.00000     0.95905
      H   78    0.04646      0.00000     0.95354    0.00000     0.95354
      H   79    0.03007      0.00000     0.96993    0.00000     0.96993
      H   80    0.04780      0.00000     0.95220    0.00000     0.95220
      H   81    0.05197      0.00000     0.94803    0.00000     0.94803
      H   82    0.03861      0.00000     0.96139    0.00000     0.96139
      H   83    0.03900      0.00000     0.96100    0.00000     0.96100
      H   84    0.02872      0.00000     0.97128    0.00000     0.97128
      H   85    0.02912      0.00000     0.97088    0.00000     0.97088
      H   86    0.03611      0.00000     0.96389    0.00000     0.96389
      H   87    0.02489      0.00000     0.97511    0.00000     0.97511
      H   88    0.03167      0.00000     0.96833    0.00000     0.96833
      H   89    0.02625      0.00000     0.97375    0.00000     0.97375
      H   90    0.02778      0.00000     0.97222    0.00000     0.97222
      H   91    0.03198      0.00000     0.96802    0.00000     0.96802
      H   92    0.05210      0.00000     0.94790    0.00000     0.94790
      H   93    0.02702      0.00000     0.97298    0.00000     0.97298
      H   94    0.05563      0.00000     0.94437    0.00000     0.94437
      H   95    0.03541      0.00000     0.96459    0.00000     0.96459
      H   96    0.03553      0.00000     0.96447    0.00000     0.96447
      H   97    0.02633      0.00000     0.97367    0.00000     0.97367
      H   98    0.04443      0.00000     0.95557    0.00000     0.95557
      H   99    0.06775      0.00000     0.93225    0.00000     0.93225
      H  100    0.05773      0.00000     0.94227    0.00000     0.94227
      H  101    0.02587      0.00000     0.97413    0.00000     0.97413
      H  102    0.07250      0.00000     0.92750    0.00000     0.92750
      H  103    0.02114      0.00000     0.97886    0.00000     0.97886
      H  104    0.03872      0.00000     0.96128    0.00000     0.96128
      H  105    0.04643      0.00000     0.95357    0.00000     0.95357
      H  106    0.03600      0.00000     0.96400    0.00000     0.96400
      H  107    0.04325      0.00000     0.95675    0.00000     0.95675
      H  108    0.05080      0.00000     0.94920    0.00000     0.94920
      H  109    0.04826      0.00000     0.95174    0.00000     0.95174
      H  110    0.02923      0.00000     0.97077    0.00000     0.97077
 =======================================================================
   * Total *   -0.00000    107.99663   286.00337    0.00000   394.00000

 Normal termination of Gaussian 16 at Thu May 30 10:03:05 2024.
