 Gaussian 16, Revision B.01,
 Gaussian 16:  ES64L-G16RevB.01 20-Dec-2017

 ----------------------------------------------
 # nmr=giao hf/sto-3g pop=nbo geom=connectivity
 ----------------------------------------------

 -----------------
 Pleiokomenine_C_2
 -----------------
 Symbolic Z-matrix:
 Charge =  0 Multiplicity = 1

                         Standard orientation:
 ---------------------------------------------------------------------
 Center     Atomic      Atomic             Coordinates (Angstroms)
 Number     Number       Type             X           Y           Z
 ---------------------------------------------------------------------
      1          6           0       -1.867786   -2.027660   -1.001979
      2          6           0       -1.317424   -2.460423   -2.217918
      3          6           0       -1.784512   -1.905231   -3.428561
      4          6           0       -2.778724   -0.918315   -3.441917
      5          6           0       -3.312158   -0.491092   -2.239423
      6          6           0       -2.836262   -1.037397   -1.030265
      7          7           0       -4.338505    0.472119   -2.025680
      8          6           0       -3.481235   -0.284827    0.107843
      9          6           0       -4.791979    0.139003   -0.648622
     10          6           0       -3.864795   -0.975394    1.416558
     11          6           0       -5.773902   -1.117626   -0.733862
     12          6           0       -6.125483   -1.658948    0.653218
     13          6           0       -5.375845   -0.853235    1.720405
     14          7           0       -3.177513   -0.194323    2.443982
     15          6           0       -3.204048   -0.829799    3.741562
     16          6           0       -4.671959   -0.859631    4.200729
     17          6           0       -5.633710   -1.421406    3.136496
     18          6           0       -2.422500    0.765186    0.543247
     19          6           0       -1.917606    0.236460    1.888168
     20          6           0       -5.845395    0.638056    1.577960
     21          6           0       -5.612890    1.187575    0.131759
     22          6           0       -5.095558    2.617024    0.130411
     23          8           0       -4.756107    3.248682    1.122928
     24          8           0       -5.150869    3.150761   -1.122656
     25          6           0       -4.672729    4.492607   -1.209340
     26          6           0       -5.294970    0.663213   -3.105187
     27          6           0       -0.211557   -3.498329   -2.232113
     28          6           0        0.988386   -3.156627   -1.367961
     29          6           0        1.519630   -1.857645   -1.353735
     30          6           0        1.583919   -4.158385   -0.569133
     31          6           0        2.682761   -3.881368    0.255549
     32          6           0        3.191497   -2.597419    0.275093
     33          6           0        2.589009   -1.592317   -0.514689
     34          7           0        4.311128   -2.099978    0.993461
     35          6           0        3.246539   -0.277389   -0.157958
     36          6           0        4.644741   -0.878973    0.224093
     37          6           0        3.489100    0.828052   -1.169501
     38          6           0        5.406798   -1.352065   -1.117998
     39          6           0        5.462058   -0.237627   -2.167323
     40          6           0        4.961662    1.069732   -1.532219
     41          7           0        2.870024    2.081752   -0.571670
     42          6           0        2.712100    3.081313   -1.668870
     43          6           0        4.114847    3.450460   -2.193368
     44          6           0        5.008462    2.238499   -2.546783
     45          6           0        2.247435    0.361592    0.852441
     46          6           0        1.645502    1.542354    0.070089
     47          6           0        5.864249    1.273801   -0.266948
     48          6           0        5.622405    0.160159    0.819151
     49          6           0        5.298271    0.692094    2.207542
     50          8           0        4.619926    0.117532    3.049140
     51          8           0        6.008752    1.830686    2.461294
     52          6           0        5.711638    2.430550    3.720848
     53          6           0        5.329253   -3.032945    1.432546
     54          8           0        3.593346    2.676253    0.432655
     55          1           0       -1.506539   -2.422479   -0.056485
     56          1           0       -1.364546   -2.234865   -4.376854
     57          1           0       -3.112616   -0.503810   -4.386075
     58          1           0       -3.535439   -2.023390    1.420973
     59          1           0       -5.353700   -1.935003   -1.332944
     60          1           0       -6.700668   -0.836781   -1.251907
     61          1           0       -7.209219   -1.601155    0.813247
     62          1           0       -5.860979   -2.722478    0.708121
     63          1           0       -2.786154   -1.842914    3.706710
     64          1           0       -2.620784   -0.254869    4.469636
     65          1           0       -4.757573   -1.450833    5.119788
     66          1           0       -4.987510    0.160102    4.456906
     67          1           0       -5.506455   -2.512023    3.113992
     68          1           0       -6.670145   -1.235911    3.442688
     69          1           0       -1.586968    0.892480   -0.154907
     70          1           0       -2.854184    1.753592    0.692814
     71          1           0       -1.210223   -0.590487    1.760922
     72          1           0       -1.445058    1.030603    2.473802
     73          1           0       -5.355640    1.265548    2.329470
     74          1           0       -6.918663    0.701102    1.803977
     75          1           0       -6.610225    1.274958   -0.326295
     76          1           0       -5.311496    5.163942   -0.627206
     77          1           0       -4.713472    4.798990   -2.258233
     78          1           0       -3.633292    4.554185   -0.871906
     79          1           0       -5.716992   -0.285679   -3.454902
     80          1           0       -4.818344    1.167712   -3.952339
     81          1           0       -6.124622    1.298691   -2.780740
     82          1           0       -0.652895   -4.449684   -1.908418
     83          1           0        0.152396   -3.654692   -3.255427
     84          1           0        1.067512   -1.067523   -1.944592
     85          1           0        1.183178   -5.170264   -0.577200
     86          1           0        3.114082   -4.668080    0.863473
     87          1           0        2.904167    0.622423   -2.078464
     88          1           0        4.959418   -2.241337   -1.578531
     89          1           0        6.430316   -1.661426   -0.864609
     90          1           0        6.485668   -0.130648   -2.546604
     91          1           0        4.841008   -0.513659   -3.029151
     92          1           0        2.200232    3.949373   -1.240324
     93          1           0        2.084228    2.631092   -2.444673
     94          1           0        4.636053    4.049878   -1.436439
     95          1           0        4.012629    4.094931   -3.074009
     96          1           0        4.671532    1.868546   -3.524795
     97          1           0        6.041968    2.576389   -2.689554
     98          1           0        1.447621   -0.299853    1.205527
     99          1           0        2.747621    0.741509    1.742366
    100          1           0        0.955336    1.233283   -0.721257
    101          1           0        1.201220    2.313894    0.705280
    102          1           0        5.780861    2.287021    0.130671
    103          1           0        6.916549    1.209464   -0.581155
    104          1           0        6.591733   -0.336407    0.979631
    105          1           0        4.639144    2.630450    3.813117
    106          1           0        6.059395    1.790890    4.537709
    107          1           0        6.244884    3.383616    3.776358
    108          1           0        6.148363   -2.500848    1.926051
    109          1           0        4.919691   -3.734375    2.167243
    110          1           0        5.747864   -3.605417    0.597761
 ---------------------------------------------------------------------

 SCF Done:  E(RHF) =  -2300.19709009     A.U. after   16 cycles

      1  C    Isotropic =   126.1497   Anisotropy =   153.5030

      2  C    Isotropic =   118.2657   Anisotropy =   163.0516

      3  C    Isotropic =   119.0749   Anisotropy =   151.2511

      4  C    Isotropic =   133.5020   Anisotropy =   144.3411

      5  C    Isotropic =   108.2033   Anisotropy =   129.8311

      6  C    Isotropic =   117.3450   Anisotropy =   144.5514

      7  N    Isotropic =   272.2775   Anisotropy =    82.8922

      8  C    Isotropic =   198.3737   Anisotropy =    11.6627

      9  C    Isotropic =   180.0930   Anisotropy =    43.3374

     10  C    Isotropic =   189.8285   Anisotropy =    32.1239

     11  C    Isotropic =   212.8214   Anisotropy =    21.3098

     12  C    Isotropic =   214.5872   Anisotropy =    19.0003

     13  C    Isotropic =   211.0182   Anisotropy =     8.2144

     14  N    Isotropic =   300.9235   Anisotropy =    58.4191

     15  C    Isotropic =   202.5988   Anisotropy =    39.7981

     16  C    Isotropic =   219.6078   Anisotropy =    10.5787

     17  C    Isotropic =   214.1370   Anisotropy =    22.9222

     18  C    Isotropic =   209.4613   Anisotropy =    31.4836

     19  C    Isotropic =   200.5513   Anisotropy =    43.5583

     20  C    Isotropic =   212.3527   Anisotropy =    20.4197

     21  C    Isotropic =   208.3261   Anisotropy =    10.5512

     22  C    Isotropic =    97.2141   Anisotropy =    98.7086

     23  O    Isotropic =  -137.3595   Anisotropy =   890.8215

     24  O    Isotropic =   284.5146   Anisotropy =   138.6845

     25  C    Isotropic =   197.4292   Anisotropy =    56.9018

     26  C    Isotropic =   209.7969   Anisotropy =    42.0081

     27  C    Isotropic =   206.1459   Anisotropy =    20.5575

     28  C    Isotropic =   118.3691   Anisotropy =   161.2535

     29  C    Isotropic =   127.7801   Anisotropy =   152.4731

     30  C    Isotropic =   118.7505   Anisotropy =   152.0113

     31  C    Isotropic =   134.0172   Anisotropy =   143.7531

     32  C    Isotropic =   108.5121   Anisotropy =   130.4747

     33  C    Isotropic =   117.6796   Anisotropy =   143.0899

     34  N    Isotropic =   273.3567   Anisotropy =    85.6848

     35  C    Isotropic =   200.8790   Anisotropy =    13.4043

     36  C    Isotropic =   179.3695   Anisotropy =    39.6078

     37  C    Isotropic =   184.0266   Anisotropy =    42.5978

     38  C    Isotropic =   211.1101   Anisotropy =    23.8988

     39  C    Isotropic =   212.8934   Anisotropy =    19.7782

     40  C    Isotropic =   211.6075   Anisotropy =    11.6743

     41  N    Isotropic =   235.4020   Anisotropy =    24.5525

     42  C    Isotropic =   193.9876   Anisotropy =    49.8659

     43  C    Isotropic =   219.3728   Anisotropy =    11.3371

     44  C    Isotropic =   214.8915   Anisotropy =    22.4146

     45  C    Isotropic =   207.2922   Anisotropy =    35.2837

     46  C    Isotropic =   191.3209   Anisotropy =    55.9332

     47  C    Isotropic =   211.7869   Anisotropy =    25.1887

     48  C    Isotropic =   207.3103   Anisotropy =    16.4816

     49  C    Isotropic =    98.3319   Anisotropy =    96.3479

     50  O    Isotropic =  -132.2843   Anisotropy =   879.0212

     51  O    Isotropic =   285.9095   Anisotropy =   142.7325

     52  C    Isotropic =   197.4990   Anisotropy =    56.5398

     53  C    Isotropic =   211.1252   Anisotropy =    42.1526

     54  O    Isotropic =    75.5535   Anisotropy =   404.6454

     55  H    Isotropic =    26.8809   Anisotropy =    14.9183

     56  H    Isotropic =    25.7469   Anisotropy =     5.8210

     57  H    Isotropic =    26.4794   Anisotropy =     7.4108

     58  H    Isotropic =    32.4002   Anisotropy =     7.8178

     59  H    Isotropic =    33.0557   Anisotropy =     8.4345

     60  H    Isotropic =    32.1411   Anisotropy =    13.6451

     61  H    Isotropic =    32.3309   Anisotropy =    15.9423

     62  H    Isotropic =    32.7695   Anisotropy =    12.9465

     63  H    Isotropic =    32.7186   Anisotropy =    11.1784

     64  H    Isotropic =    31.8775   Anisotropy =    13.9076

     65  H    Isotropic =    32.5135   Anisotropy =    17.5293

     66  H    Isotropic =    31.9500   Anisotropy =    12.7845

     67  H    Isotropic =    32.6880   Anisotropy =    12.5787

     68  H    Isotropic =    32.3392   Anisotropy =    15.4615

     69  H    Isotropic =    33.5170   Anisotropy =    14.5734

     70  H    Isotropic =    32.5973   Anisotropy =    11.2486

     71  H    Isotropic =    32.9186   Anisotropy =    15.5833

     72  H    Isotropic =    32.2467   Anisotropy =    13.7106

     73  H    Isotropic =    30.4143   Anisotropy =     9.7870

     74  H    Isotropic =    32.0645   Anisotropy =    15.6687

     75  H    Isotropic =    31.2549   Anisotropy =    12.8628

     76  H    Isotropic =    30.5186   Anisotropy =    12.0921

     77  H    Isotropic =    30.5420   Anisotropy =    11.4399

     78  H    Isotropic =    30.6275   Anisotropy =     7.9430

     79  H    Isotropic =    31.8522   Anisotropy =    11.9956

     80  H    Isotropic =    30.6746   Anisotropy =    14.0316

     81  H    Isotropic =    30.8276   Anisotropy =    10.9644

     82  H    Isotropic =    30.1176   Anisotropy =    11.1936

     83  H    Isotropic =    30.2500   Anisotropy =    11.2406

     84  H    Isotropic =    27.3541   Anisotropy =    15.8008

     85  H    Isotropic =    25.7036   Anisotropy =     6.1047

     86  H    Isotropic =    26.4781   Anisotropy =     7.1930

     87  H    Isotropic =    32.1204   Anisotropy =     6.8981

     88  H    Isotropic =    33.1607   Anisotropy =     8.4841

     89  H    Isotropic =    32.1476   Anisotropy =    13.6679

     90  H    Isotropic =    32.2677   Anisotropy =    16.0069

     91  H    Isotropic =    33.0222   Anisotropy =    11.7179

     92  H    Isotropic =    31.0458   Anisotropy =    13.2299

     93  H    Isotropic =    32.3080   Anisotropy =    10.6091

     94  H    Isotropic =    31.1411   Anisotropy =    13.0354

     95  H    Isotropic =    32.3912   Anisotropy =    17.4589

     96  H    Isotropic =    32.7630   Anisotropy =    12.3886

     97  H    Isotropic =    32.1573   Anisotropy =    15.5817

     98  H    Isotropic =    33.0793   Anisotropy =    13.3955

     99  H    Isotropic =    31.4938   Anisotropy =    10.7503

    100  H    Isotropic =    32.3709   Anisotropy =    16.1151

    101  H    Isotropic =    31.3382   Anisotropy =    13.3473

    102  H    Isotropic =    29.9162   Anisotropy =    10.7486

    103  H    Isotropic =    31.8238   Anisotropy =    14.9637

    104  H    Isotropic =    31.4314   Anisotropy =    13.0488

    105  H    Isotropic =    30.6155   Anisotropy =     7.1649

    106  H    Isotropic =    30.6266   Anisotropy =    11.3672

    107  H    Isotropic =    30.6662   Anisotropy =    12.6211

    108  H    Isotropic =    31.5080   Anisotropy =    11.9048

    109  H    Isotropic =    30.7864   Anisotropy =    14.5022

    110  H    Isotropic =    31.9568   Anisotropy =    12.2353

 The electronic state is 1-A.
 Alpha  occ. eigenvalues --  -20.30082 -20.28530 -20.24174 -20.22537 -19.92163
 Alpha  occ. eigenvalues --  -15.48229 -15.33540 -15.33467 -15.30005 -11.15974
 Alpha  occ. eigenvalues --  -11.14778 -11.10233 -11.09709 -11.09373 -11.09255
 Alpha  occ. eigenvalues --  -11.09186 -11.08764 -11.08732 -11.08062 -11.07863
 Alpha  occ. eigenvalues --  -11.06742 -11.06677 -11.06543 -11.06472 -11.06286
 Alpha  occ. eigenvalues --  -11.06054 -11.05918 -11.05739 -11.05687 -11.05625
 Alpha  occ. eigenvalues --  -11.05230 -11.05071 -11.04810 -11.04721 -11.04674
 Alpha  occ. eigenvalues --  -11.04208 -11.03779 -11.03724 -11.03711 -11.03639
 Alpha  occ. eigenvalues --  -11.03610 -11.03586 -11.03571 -11.03194 -11.02351
 Alpha  occ. eigenvalues --  -11.02343 -11.02229 -11.02097 -11.02024 -11.01948
 Alpha  occ. eigenvalues --  -11.01914 -11.01848 -11.01593 -11.01527  -1.37380
 Alpha  occ. eigenvalues --   -1.35772  -1.29610  -1.27070  -1.25521  -1.21533
 Alpha  occ. eigenvalues --   -1.20901  -1.19207  -1.10565  -1.09433  -1.08815
 Alpha  occ. eigenvalues --   -1.07642  -1.05848  -1.04716  -1.02829  -1.00598
 Alpha  occ. eigenvalues --   -0.98967  -0.98792  -0.98154  -0.97504  -0.96591
 Alpha  occ. eigenvalues --   -0.96336  -0.95241  -0.94212  -0.94174  -0.92470
 Alpha  occ. eigenvalues --   -0.91677  -0.91136  -0.89579  -0.89302  -0.87905
 Alpha  occ. eigenvalues --   -0.86449  -0.84727  -0.82728  -0.81262  -0.81229
 Alpha  occ. eigenvalues --   -0.80473  -0.79431  -0.78323  -0.77533  -0.76939
 Alpha  occ. eigenvalues --   -0.76899  -0.74479  -0.74050  -0.73045  -0.72672
 Alpha  occ. eigenvalues --   -0.71685  -0.70265  -0.69266  -0.68375  -0.65187
 Alpha  occ. eigenvalues --   -0.65114  -0.64791  -0.64342  -0.63416  -0.62955
 Alpha  occ. eigenvalues --   -0.62559  -0.62120  -0.61597  -0.61411  -0.61072
 Alpha  occ. eigenvalues --   -0.59955  -0.59731  -0.59155  -0.58548  -0.58321
 Alpha  occ. eigenvalues --   -0.58125  -0.57840  -0.57811  -0.57654  -0.57299
 Alpha  occ. eigenvalues --   -0.56849  -0.56660  -0.56110  -0.55693  -0.55426
 Alpha  occ. eigenvalues --   -0.55062  -0.54666  -0.54587  -0.54344  -0.54295
 Alpha  occ. eigenvalues --   -0.53987  -0.53463  -0.53261  -0.53126  -0.52286
 Alpha  occ. eigenvalues --   -0.51616  -0.51394  -0.50928  -0.50623  -0.50346
 Alpha  occ. eigenvalues --   -0.50184  -0.49264  -0.49234  -0.48964  -0.48697
 Alpha  occ. eigenvalues --   -0.48284  -0.48124  -0.47600  -0.47327  -0.46832
 Alpha  occ. eigenvalues --   -0.46561  -0.46386  -0.45974  -0.45329  -0.45168
 Alpha  occ. eigenvalues --   -0.44876  -0.44765  -0.44549  -0.43829  -0.43639
 Alpha  occ. eigenvalues --   -0.43372  -0.43298  -0.42661  -0.42629  -0.42351
 Alpha  occ. eigenvalues --   -0.42119  -0.41402  -0.41043  -0.40786  -0.40473
 Alpha  occ. eigenvalues --   -0.39974  -0.39811  -0.38781  -0.38300  -0.37696
 Alpha  occ. eigenvalues --   -0.37385  -0.37239  -0.35814  -0.35616  -0.33994
 Alpha  occ. eigenvalues --   -0.33210  -0.32799  -0.31768  -0.31226  -0.30573
 Alpha  occ. eigenvalues --   -0.27433  -0.27200  -0.27025  -0.21222  -0.20401
 Alpha  occ. eigenvalues --   -0.16101  -0.15576
 Alpha virt. eigenvalues --    0.26601   0.27331   0.27516   0.28161   0.31075
 Alpha virt. eigenvalues --    0.32818   0.45579   0.48323   0.48584   0.48852
 Alpha virt. eigenvalues --    0.49260   0.49899   0.50791   0.51407   0.52217

 Mulliken charges:
               1
     1  C   -0.077817
     2  C   -0.000573
     3  C   -0.065295
     4  C   -0.091280
     5  C    0.089278
     6  C   -0.014034
     7  N   -0.283264
     8  C    0.015409
     9  C    0.129454
    10  C    0.040652
    11  C   -0.114742
    12  C   -0.107974
    13  C    0.041741
    14  N   -0.293416
    15  C   -0.012109
    16  C   -0.095724
    17  C   -0.100403
    18  C   -0.099063
    19  C   -0.014022
    20  C   -0.104406
    21  C   -0.064066
    22  C    0.317852
    23  O   -0.273239
    24  O   -0.256417
    25  C   -0.055526
    26  C   -0.078861
    27  C   -0.110579
    28  C   -0.000157
    29  C   -0.079873
    30  C   -0.063072
    31  C   -0.090707
    32  C    0.095387
    33  C   -0.013869
    34  N   -0.281401
    35  C    0.015306
    36  C    0.135001
    37  C    0.039619
    38  C   -0.115997
    39  C   -0.105428
    40  C    0.040139
    41  N   -0.081157
    42  C   -0.003240
    43  C   -0.097199
    44  C   -0.099159
    45  C   -0.097909
    46  C   -0.005163
    47  C   -0.098508
    48  C   -0.058466
    49  C    0.327419
    50  O   -0.275738
    51  O   -0.255718
    52  C   -0.054014
    53  C   -0.077036
    54  O   -0.461352
    55  H    0.060678
    56  H    0.055023
    57  H    0.058669
    58  H    0.042821
    59  H    0.053382
    60  H    0.049467
    61  H    0.048681
    62  H    0.049173
    63  H    0.039501
    64  H    0.062581
    65  H    0.050218
    66  H    0.056143
    67  H    0.046773
    68  H    0.051402
    69  H    0.053167
    70  H    0.065968
    71  H    0.040677
    72  H    0.063469
    73  H    0.080315
    74  H    0.048393
    75  H    0.063131
    76  H    0.072166
    77  H    0.075831
    78  H    0.073422
    79  H    0.054818
    80  H    0.070781
    81  H    0.076862
    82  H    0.060422
    83  H    0.059408
    84  H    0.056661
    85  H    0.055814
    86  H    0.060214
    87  H    0.054354
    88  H    0.054377
    89  H    0.049388
    90  H    0.053151
    91  H    0.046884
    92  H    0.084953
    93  H    0.056082
    94  H    0.080902
    95  H    0.057941
    96  H    0.046761
    97  H    0.058433
    98  H    0.067079
    99  H    0.095665
   100  H    0.057443
   101  H    0.090209
   102  H    0.102200
   103  H    0.044732
   104  H    0.061850
   105  H    0.078368
   106  H    0.067319
   107  H    0.074302
   108  H    0.072494
   109  H    0.075237
   110  H    0.054568
 Sum of Mulliken charges =  -0.00000

 Dipole moment (field-independent basis, Debye):
    X=             -1.1481    Y=             -1.7696    Z=             -4.0441  Tot=              4.5612
 Quadrupole moment (field-independent basis, Debye-Ang):
   XX=           -284.7785   YY=           -299.2959   ZZ=           -298.1866
   XY=             -5.3834   XZ=             -4.3490   YZ=            -10.3906

 Summary of Natural Population Analysis:

                                       Natural Population
                Natural  -----------------------------------------------
    Atom  No    Charge         Core      Valence    Rydberg      Total
 -----------------------------------------------------------------------
      C    1   -0.06081      1.99992     4.06089    0.00000     6.06081
      C    2    0.01421      1.99990     3.98589    0.00000     5.98579
      C    3   -0.03787      1.99994     4.03793    0.00000     6.03787
      C    4   -0.08849      1.99993     4.08856    0.00000     6.08849
      C    5    0.11280      1.99985     3.88735    0.00000     5.88720
      C    6   -0.02266      1.99990     4.02276    0.00000     6.02266
      N    7   -0.27208      1.99998     5.27210    0.00000     7.27208
      C    8    0.01559      1.99996     3.98446    0.00000     5.98441
      C    9    0.17328      1.99996     3.82676    0.00000     5.82672
      C   10    0.07246      1.99994     3.92760    0.00000     5.92754
      C   11   -0.08439      1.99994     4.08446    0.00000     6.08439
      C   12   -0.07823      1.99996     4.07827    0.00000     6.07823
      C   13    0.06352      1.99998     3.93651    0.00000     5.93648
      N   14   -0.28333      1.99999     5.28334    0.00000     7.28333
      C   15    0.04256      1.99994     3.95749    0.00000     5.95744
      C   16   -0.05887      1.99996     4.05891    0.00000     6.05887
      C   17   -0.06446      1.99995     4.06451    0.00000     6.06446
      C   18   -0.06564      1.99994     4.06570    0.00000     6.06564
      C   19    0.03958      1.99995     3.96047    0.00000     5.96042
      C   20   -0.06686      1.99992     4.06693    0.00000     6.06686
      C   21   -0.08028      1.99994     4.08034    0.00000     6.08028
      C   22    0.40000      1.99991     3.60009    0.00000     5.60000
      O   23   -0.30709      1.99999     6.30710    0.00000     8.30709
      O   24   -0.26814      1.99999     6.26815    0.00000     8.26814
      C   25    0.03489      1.99984     3.96527    0.00000     5.96511
      C   26   -0.01651      1.99992     4.01659    0.00000     6.01651
      C   27   -0.08745      1.99995     4.08749    0.00000     6.08745
      C   28    0.01458      1.99990     3.98552    0.00000     5.98542
      C   29   -0.06403      1.99992     4.06411    0.00000     6.06403
      C   30   -0.03491      1.99994     4.03497    0.00000     6.03491
      C   31   -0.08914      1.99993     4.08921    0.00000     6.08914
      C   32    0.11937      1.99985     3.88078    0.00000     5.88063
      C   33   -0.02216      1.99990     4.02227    0.00000     6.02216
      N   34   -0.27143      1.99998     5.27145    0.00000     7.27143
      C   35    0.01131      1.99996     3.98873    0.00000     5.98869
      C   36    0.17880      1.99996     3.82125    0.00000     5.82120
      C   37    0.06877      1.99991     3.93132    0.00000     5.93123
      C   38   -0.08451      1.99993     4.08458    0.00000     6.08451
      C   39   -0.07456      1.99996     4.07460    0.00000     6.07456
      C   40    0.05899      1.99998     3.94104    0.00000     5.94101
      N   41    0.03327      1.99999     4.96675    0.00000     6.96673
      C   42    0.05002      1.99992     3.95007    0.00000     5.94998
      C   43   -0.06342      1.99995     4.06347    0.00000     6.06342
      C   44   -0.06245      1.99994     4.06251    0.00000     6.06245
      C   45   -0.06683      1.99993     4.06690    0.00000     6.06683
      C   46    0.04546      1.99993     3.95460    0.00000     5.95454
      C   47   -0.06051      1.99991     4.06060    0.00000     6.06051
      C   48   -0.07378      1.99994     4.07384    0.00000     6.07378
      C   49    0.40968      1.99991     3.59042    0.00000     5.59032
      O   50   -0.31118      1.99999     6.31120    0.00000     8.31118
      O   51   -0.26805      1.99999     6.26806    0.00000     8.26805
      C   52    0.03629      1.99984     3.96387    0.00000     5.96371
      C   53   -0.01512      1.99993     4.01519    0.00000     6.01512
      O   54   -0.51394      2.00000     6.51395    0.00000     8.51394
      H   55    0.03535      0.00000     0.96465    0.00000     0.96465
      H   56    0.02813      0.00000     0.97187    0.00000     0.97187
      H   57    0.03468      0.00000     0.96532    0.00000     0.96532
      H   58    0.01238      0.00000     0.98762    0.00000     0.98762
      H   59    0.03049      0.00000     0.96951    0.00000     0.96951
      H   60    0.02741      0.00000     0.97259    0.00000     0.97259
      H   61    0.02831      0.00000     0.97169    0.00000     0.97169
      H   62    0.02880      0.00000     0.97120    0.00000     0.97120
      H   63    0.01177      0.00000     0.98823    0.00000     0.98823
      H   64    0.03643      0.00000     0.96357    0.00000     0.96357
      H   65    0.02890      0.00000     0.97110    0.00000     0.97110
      H   66    0.03408      0.00000     0.96592    0.00000     0.96592
      H   67    0.02525      0.00000     0.97475    0.00000     0.97475
      H   68    0.02978      0.00000     0.97022    0.00000     0.97022
      H   69    0.03141      0.00000     0.96859    0.00000     0.96859
      H   70    0.04140      0.00000     0.95860    0.00000     0.95860
      H   71    0.01289      0.00000     0.98711    0.00000     0.98711
      H   72    0.03703      0.00000     0.96297    0.00000     0.96297
      H   73    0.05368      0.00000     0.94632    0.00000     0.94632
      H   74    0.02547      0.00000     0.97453    0.00000     0.97453
      H   75    0.04003      0.00000     0.95997    0.00000     0.95997
      H   76    0.04065      0.00000     0.95935    0.00000     0.95935
      H   77    0.04490      0.00000     0.95510    0.00000     0.95510
      H   78    0.04206      0.00000     0.95794    0.00000     0.95794
      H   79    0.02945      0.00000     0.97055    0.00000     0.97055
      H   80    0.04649      0.00000     0.95351    0.00000     0.95351
      H   81    0.05247      0.00000     0.94753    0.00000     0.94753
      H   82    0.04164      0.00000     0.95836    0.00000     0.95836
      H   83    0.04063      0.00000     0.95937    0.00000     0.95937
      H   84    0.03178      0.00000     0.96822    0.00000     0.96822
      H   85    0.02858      0.00000     0.97142    0.00000     0.97142
      H   86    0.03620      0.00000     0.96380    0.00000     0.96380
      H   87    0.02224      0.00000     0.97776    0.00000     0.97776
      H   88    0.03081      0.00000     0.96919    0.00000     0.96919
      H   89    0.02671      0.00000     0.97329    0.00000     0.97329
      H   90    0.03224      0.00000     0.96776    0.00000     0.96776
      H   91    0.02595      0.00000     0.97405    0.00000     0.97405
      H   92    0.05335      0.00000     0.94665    0.00000     0.94665
      H   93    0.02547      0.00000     0.97453    0.00000     0.97453
      H   94    0.05618      0.00000     0.94382    0.00000     0.94382
      H   95    0.03613      0.00000     0.96387    0.00000     0.96387
      H   96    0.02463      0.00000     0.97537    0.00000     0.97537
      H   97    0.03609      0.00000     0.96391    0.00000     0.96391
      H   98    0.04403      0.00000     0.95597    0.00000     0.95597
      H   99    0.06788      0.00000     0.93212    0.00000     0.93212
      H  100    0.02703      0.00000     0.97297    0.00000     0.97297
      H  101    0.05870      0.00000     0.94130    0.00000     0.94130
      H  102    0.07288      0.00000     0.92712    0.00000     0.92712
      H  103    0.02124      0.00000     0.97876    0.00000     0.97876
      H  104    0.03875      0.00000     0.96125    0.00000     0.96125
      H  105    0.04668      0.00000     0.95332    0.00000     0.95332
      H  106    0.03604      0.00000     0.96396    0.00000     0.96396
      H  107    0.04350      0.00000     0.95650    0.00000     0.95650
      H  108    0.04866      0.00000     0.95134    0.00000     0.95134
      H  109    0.05095      0.00000     0.94905    0.00000     0.94905
      H  110    0.02911      0.00000     0.97089    0.00000     0.97089
 =======================================================================
   * Total *   -0.00000    107.99663   286.00337    0.00000   394.00000

 Normal termination of Gaussian 16 at Thu May 30 09:31:33 2024.
