 Gaussian 16, Revision B.01,
 Gaussian 16:  ES64L-G16RevB.01 20-Dec-2017

 ----------------------------------------------
 # nmr=giao hf/sto-3g pop=nbo geom=connectivity
 ----------------------------------------------

 -----------------
 Pleiokomenine_C_2
 -----------------
 Symbolic Z-matrix:
 Charge =  0 Multiplicity = 1

                         Standard orientation:
 ---------------------------------------------------------------------
 Center     Atomic      Atomic             Coordinates (Angstroms)
 Number     Number       Type             X           Y           Z
 ---------------------------------------------------------------------
      1          6           0        1.898058    1.806269   -1.283471
      2          6           0        1.615528    3.178418   -1.310790
      3          6           0        2.512842    4.076024   -0.697030
      4          6           0        3.667009    3.619538   -0.042629
      5          6           0        3.907142    2.257758    0.025834
      6          6           0        3.023868    1.368299   -0.605993
      7          7           0        4.958712    1.579579    0.700279
      8          6           0        3.535884   -0.038809   -0.435447
      9          6           0        4.394837    0.213582    0.865493
     10          6           0        2.553289   -1.191969   -0.175195
     11          6           0        3.429143    0.200890    2.131743
     12          6           0        2.740188   -1.159241    2.295200
     13          6           0        3.042725   -2.025834    1.057639
     14          7           0        2.470994   -1.909425   -1.451695
     15          6           0        1.891208   -3.243775   -1.373717
     16          6           0        2.386429   -4.105981   -0.213684
     17          6           0        2.286537   -3.360539    1.116180
     18          6           0        4.231734   -0.412676   -1.765007
     19          6           0        3.776062   -1.828532   -2.094387
     20          6           0        4.591464   -2.263956    1.085142
     21          6           0        5.387596   -0.929955    1.137244
     22          6           0        6.638731   -0.973639    0.278107
     23          8           0        6.861063   -1.799329   -0.598994
     24          8           0        7.523170   -0.012426    0.665376
     25          6           0        8.716148    0.035160   -0.116628
     26          6           0        5.576243    2.278866    1.817018
     27          6           0        0.341610    3.677556   -1.959335
     28          6           0       -0.894097    3.344829   -1.147299
     29          6           0       -1.485966    2.078898   -1.262326
     30          6           0       -1.396830    4.264179   -0.200631
     31          6           0       -2.483314    3.942646    0.625478
     32          6           0       -3.055004    2.689732    0.514469
     33          6           0       -2.530625    1.760850   -0.411688
     34          7           0       -4.161752    2.152911    1.225690
     35          6           0       -3.214940    0.435302   -0.164651
     36          6           0       -4.571783    1.031992    0.348522
     37          6           0       -3.538137   -0.546375   -1.275398
     38          6           0       -5.379053    1.666411   -0.895854
     39          6           0       -5.522669    0.671286   -2.051662
     40          6           0       -5.032569   -0.709647   -1.586084
     41          7           0       -2.926572   -1.872881   -0.850501
     42          6           0       -2.849843   -2.746466   -2.058087
     43          6           0       -4.286818   -3.023162   -2.546162
     44          6           0       -5.163549   -1.759974   -2.716575
     45          6           0       -2.190698   -0.336207    0.720879
     46          6           0       -1.658711   -1.435685   -0.215155
     47          6           0       -5.877934   -1.025674   -0.304887
     48          6           0       -5.553135   -0.038550    0.878237
     49          6           0       -5.184294   -0.724822    2.185416
     50          8           0       -4.443735   -0.268245    3.046523
     51          8           0       -5.926999   -1.858890    2.354696
     52          6           0       -5.601122   -2.595193    3.532063
     53          6           0       -5.124292    3.067997    1.804991
     54          8           0       -3.616135   -2.561219    0.117508
     55          1           0        1.252246    1.085562   -1.773139
     56          1           0        2.311201    5.144865   -0.715568
     57          1           0        4.337488    4.334269    0.420043
     58          1           0        1.547369   -0.806207    0.039802
     59          1           0        2.660895    0.981375    2.065507
     60          1           0        3.991348    0.424948    3.047434
     61          1           0        3.094563   -1.651358    3.209767
     62          1           0        1.660662   -1.011937    2.424379
     63          1           0        0.805143   -3.125676   -1.269182
     64          1           0        2.033359   -3.778162   -2.321058
     65          1           0        1.782448   -5.019458   -0.160043
     66          1           0        3.417110   -4.428016   -0.397262
     67          1           0        1.227298   -3.179783    1.341212
     68          1           0        2.674023   -3.992249    1.924387
     69          1           0        3.892216    0.234666   -2.586767
     70          1           0        5.315627   -0.306397   -1.753475
     71          1           0        3.693510   -1.967073   -3.177820
     72          1           0        4.484622   -2.571770   -1.725001
     73          1           0        4.909003   -2.899126    0.257962
     74          1           0        4.847586   -2.842785    1.984221
     75          1           0        5.771640   -0.838587    2.164944
     76          1           0        9.289272   -0.889166    0.005271
     77          1           0        8.479265    0.209864   -1.170869
     78          1           0        9.323895    0.869828    0.243470
     79          1           0        4.833899    2.654275    2.530351
     80          1           0        6.172863    3.123321    1.455329
     81          1           0        6.257155    1.616832    2.360529
     82          1           0        0.394955    4.762061   -2.120231
     83          1           0        0.252714    3.243342   -2.963965
     84          1           0       -1.091514    1.345396   -1.956266
     85          1           0       -0.925202    5.238369   -0.087996
     86          1           0       -2.844722    4.665237    1.347723
     87          1           0       -2.992469   -0.255873   -2.185635
     88          1           0       -4.922410    2.585703   -1.282697
     89          1           0       -6.378076    1.977769   -0.560400
     90          1           0       -6.567140    0.632082   -2.384565
     91          1           0       -4.937869    1.021491   -2.911918
     92          1           0       -2.341763   -3.668020   -1.755146
     93          1           0       -2.248175   -2.226543   -2.810706
     94          1           0       -4.246310   -3.567512   -3.496649
     95          1           0       -4.786425   -3.691570   -1.833819
     96          1           0       -4.867139   -1.292931   -3.665805
     97          1           0       -6.211976   -2.057327   -2.839070
     98          1           0       -1.356753    0.261476    1.107538
     99          1           0       -2.662199   -0.801978    1.585471
    100          1           0       -0.997141   -1.057157   -1.000682
    101          1           0       -1.207829   -2.282808    0.309416
    102          1           0       -5.802307   -2.076655   -0.019674
    103          1           0       -6.942158   -0.905265   -0.556376
    104          1           0       -6.498147    0.463748    1.136287
    105          1           0       -4.535196   -2.844238    3.552104
    106          1           0       -6.171755   -3.527881    3.517123
    107          1           0       -5.885049   -2.029509    4.424776
    108          1           0       -5.944347    2.514390    2.272884
    109          1           0       -4.659543    3.670757    2.592523
    110          1           0       -5.551723    3.742060    1.054771
 ---------------------------------------------------------------------

 SCF Done:  E(RHF) =  -2300.20192923     A.U. after   16 cycles

      1  C    Isotropic =   125.1445   Anisotropy =   150.0153

      2  C    Isotropic =   120.8615   Anisotropy =   156.2624

      3  C    Isotropic =   119.6830   Anisotropy =   149.2538

      4  C    Isotropic =   133.5935   Anisotropy =   142.6754

      5  C    Isotropic =   108.8552   Anisotropy =   127.2411

      6  C    Isotropic =   117.6590   Anisotropy =   139.7753

      7  N    Isotropic =   273.4797   Anisotropy =    81.5673

      8  C    Isotropic =   196.1332   Anisotropy =    14.6993

      9  C    Isotropic =   181.2041   Anisotropy =    45.0406

     10  C    Isotropic =   190.0590   Anisotropy =    27.7088

     11  C    Isotropic =   213.9287   Anisotropy =    18.6553

     12  C    Isotropic =   213.0718   Anisotropy =    19.7435

     13  C    Isotropic =   213.8394   Anisotropy =     8.7299

     14  N    Isotropic =   302.0891   Anisotropy =    52.3810

     15  C    Isotropic =   205.4042   Anisotropy =    33.0367

     16  C    Isotropic =   224.3476   Anisotropy =     7.6691

     17  C    Isotropic =   215.5034   Anisotropy =    18.7422

     18  C    Isotropic =   210.8947   Anisotropy =    36.4563

     19  C    Isotropic =   199.5142   Anisotropy =    44.0049

     20  C    Isotropic =   212.2325   Anisotropy =    22.4586

     21  C    Isotropic =   209.1247   Anisotropy =    11.0433

     22  C    Isotropic =    96.4097   Anisotropy =    98.7363

     23  O    Isotropic =  -134.6386   Anisotropy =   887.3463

     24  O    Isotropic =   283.8906   Anisotropy =   139.8505

     25  C    Isotropic =   197.3656   Anisotropy =    57.8550

     26  C    Isotropic =   209.9152   Anisotropy =    41.5698

     27  C    Isotropic =   206.5389   Anisotropy =    15.0220

     28  C    Isotropic =   119.7911   Anisotropy =   158.1920

     29  C    Isotropic =   127.8532   Anisotropy =   147.0755

     30  C    Isotropic =   119.3386   Anisotropy =   153.3303

     31  C    Isotropic =   133.9254   Anisotropy =   143.4390

     32  C    Isotropic =   108.6303   Anisotropy =   130.2719

     33  C    Isotropic =   117.4849   Anisotropy =   142.6925

     34  N    Isotropic =   273.5103   Anisotropy =    85.6078

     35  C    Isotropic =   200.7128   Anisotropy =    13.1942

     36  C    Isotropic =   179.3889   Anisotropy =    39.8118

     37  C    Isotropic =   183.7329   Anisotropy =    43.7327

     38  C    Isotropic =   211.0342   Anisotropy =    23.7348

     39  C    Isotropic =   212.6791   Anisotropy =    20.2913

     40  C    Isotropic =   211.4345   Anisotropy =    11.4862

     41  N    Isotropic =   235.0404   Anisotropy =    23.8808

     42  C    Isotropic =   193.5818   Anisotropy =    49.3160

     43  C    Isotropic =   219.1169   Anisotropy =    11.8199

     44  C    Isotropic =   214.6837   Anisotropy =    22.3348

     45  C    Isotropic =   206.9762   Anisotropy =    36.6036

     46  C    Isotropic =   190.5953   Anisotropy =    55.1067

     47  C    Isotropic =   211.6725   Anisotropy =    25.0404

     48  C    Isotropic =   207.2187   Anisotropy =    16.3224

     49  C    Isotropic =    98.2376   Anisotropy =    96.3110

     50  O    Isotropic =  -132.4444   Anisotropy =   879.4418

     51  O    Isotropic =   285.7615   Anisotropy =   142.9241

     52  C    Isotropic =   197.4793   Anisotropy =    56.3752

     53  C    Isotropic =   211.1299   Anisotropy =    42.4177

     54  O    Isotropic =    74.4730   Anisotropy =   406.0228

     55  H    Isotropic =    25.7628   Anisotropy =    13.8220

     56  H    Isotropic =    25.7403   Anisotropy =     6.5873

     57  H    Isotropic =    26.6273   Anisotropy =     7.9088

     58  H    Isotropic =    31.9737   Anisotropy =    15.1021

     59  H    Isotropic =    33.3593   Anisotropy =     8.9974

     60  H    Isotropic =    32.3475   Anisotropy =    13.4055

     61  H    Isotropic =    32.4988   Anisotropy =    14.6543

     62  H    Isotropic =    32.9006   Anisotropy =    13.8429

     63  H    Isotropic =    31.9750   Anisotropy =    17.7813

     64  H    Isotropic =    31.8333   Anisotropy =    14.3787

     65  H    Isotropic =    32.6346   Anisotropy =    16.8043

     66  H    Isotropic =    32.5612   Anisotropy =    12.2770

     67  H    Isotropic =    32.7791   Anisotropy =    13.4034

     68  H    Isotropic =    32.5251   Anisotropy =    14.5613

     69  H    Isotropic =    32.3492   Anisotropy =    11.0628

     70  H    Isotropic =    32.9302   Anisotropy =    12.1303

     71  H    Isotropic =    31.8347   Anisotropy =    15.5988

     72  H    Isotropic =    31.9328   Anisotropy =     9.9655

     73  H    Isotropic =    31.4302   Anisotropy =     9.7711

     74  H    Isotropic =    32.2769   Anisotropy =    14.7587

     75  H    Isotropic =    31.2726   Anisotropy =    12.6573

     76  H    Isotropic =    30.5853   Anisotropy =    11.7851

     77  H    Isotropic =    30.6539   Anisotropy =     7.8717

     78  H    Isotropic =    30.5552   Anisotropy =    12.2245

     79  H    Isotropic =    31.9903   Anisotropy =    11.1331

     80  H    Isotropic =    30.7965   Anisotropy =    14.8080

     81  H    Isotropic =    30.9549   Anisotropy =    11.0291

     82  H    Isotropic =    29.9078   Anisotropy =    12.4425

     83  H    Isotropic =    30.0512   Anisotropy =     8.0812

     84  H    Isotropic =    25.9440   Anisotropy =    11.8453

     85  H    Isotropic =    25.8216   Anisotropy =     6.8873

     86  H    Isotropic =    26.5913   Anisotropy =     7.4671

     87  H    Isotropic =    31.5919   Anisotropy =     5.7801

     88  H    Isotropic =    33.0067   Anisotropy =     8.8263

     89  H    Isotropic =    32.0694   Anisotropy =    13.8545

     90  H    Isotropic =    32.1353   Anisotropy =    16.0328

     91  H    Isotropic =    32.7989   Anisotropy =    11.6760

     92  H    Isotropic =    30.7303   Anisotropy =    13.0411

     93  H    Isotropic =    31.7611   Anisotropy =    10.0319

     94  H    Isotropic =    32.1892   Anisotropy =    17.3178

     95  H    Isotropic =    30.9742   Anisotropy =    12.6863

     96  H    Isotropic =    32.5346   Anisotropy =    12.4345

     97  H    Isotropic =    32.0130   Anisotropy =    15.5359

     98  H    Isotropic =    32.9759   Anisotropy =    11.7609

     99  H    Isotropic =    31.3529   Anisotropy =    10.4536

    100  H    Isotropic =    31.2751   Anisotropy =    16.1673

    101  H    Isotropic =    30.9368   Anisotropy =    16.4519

    102  H    Isotropic =    29.8043   Anisotropy =    10.4774

    103  H    Isotropic =    31.7129   Anisotropy =    14.9740

    104  H    Isotropic =    31.3643   Anisotropy =    13.2122

    105  H    Isotropic =    30.5726   Anisotropy =     7.2756

    106  H    Isotropic =    30.6227   Anisotropy =    12.5356

    107  H    Isotropic =    30.6002   Anisotropy =    11.4372

    108  H    Isotropic =    31.5153   Anisotropy =    11.9951

    109  H    Isotropic =    30.8187   Anisotropy =    14.6200

    110  H    Isotropic =    31.9595   Anisotropy =    12.4034

 The electronic state is 1-A.
 Alpha  occ. eigenvalues --  -20.30581 -20.28606 -20.24543 -20.22627 -19.92212
 Alpha  occ. eigenvalues --  -15.48246 -15.33493 -15.33436 -15.30757 -11.16465
 Alpha  occ. eigenvalues --  -11.14841 -11.10504 -11.09721 -11.09376 -11.09349
 Alpha  occ. eigenvalues --  -11.09221 -11.08841 -11.08766 -11.08035 -11.07804
 Alpha  occ. eigenvalues --  -11.07129 -11.07062 -11.06459 -11.06359 -11.06296
 Alpha  occ. eigenvalues --  -11.06172 -11.05819 -11.05716 -11.05676 -11.05511
 Alpha  occ. eigenvalues --  -11.05331 -11.05236 -11.04809 -11.04715 -11.04474
 Alpha  occ. eigenvalues --  -11.04354 -11.04203 -11.04166 -11.04006 -11.03812
 Alpha  occ. eigenvalues --  -11.03756 -11.03711 -11.03705 -11.03217 -11.02225
 Alpha  occ. eigenvalues --  -11.02127 -11.02091 -11.01925 -11.01825 -11.01732
 Alpha  occ. eigenvalues --  -11.01717 -11.01459 -11.01451 -11.01280  -1.37799
 Alpha  occ. eigenvalues --   -1.35851  -1.29626  -1.27601  -1.25597  -1.21385
 Alpha  occ. eigenvalues --   -1.20863  -1.18899  -1.10578  -1.09635  -1.08935
 Alpha  occ. eigenvalues --   -1.07532  -1.05820  -1.04920  -1.02839  -1.00801
 Alpha  occ. eigenvalues --   -0.99140  -0.98801  -0.98442  -0.97470  -0.96771
 Alpha  occ. eigenvalues --   -0.96588  -0.95273  -0.94510  -0.94085  -0.92369
 Alpha  occ. eigenvalues --   -0.91602  -0.91458  -0.89598  -0.89357  -0.87928
 Alpha  occ. eigenvalues --   -0.86495  -0.84778  -0.82822  -0.81855  -0.81252
 Alpha  occ. eigenvalues --   -0.80441  -0.79639  -0.78359  -0.77654  -0.77481
 Alpha  occ. eigenvalues --   -0.77220  -0.74508  -0.74040  -0.72807  -0.72224
 Alpha  occ. eigenvalues --   -0.71313  -0.70228  -0.69384  -0.68411  -0.65899
 Alpha  occ. eigenvalues --   -0.65206  -0.64832  -0.64622  -0.63550  -0.62992
 Alpha  occ. eigenvalues --   -0.62587  -0.62197  -0.61583  -0.61396  -0.61144
 Alpha  occ. eigenvalues --   -0.60580  -0.59748  -0.59186  -0.58733  -0.58495
 Alpha  occ. eigenvalues --   -0.58170  -0.58075  -0.57881  -0.57767  -0.57204
 Alpha  occ. eigenvalues --   -0.56789  -0.56664  -0.56366  -0.55728  -0.55349
 Alpha  occ. eigenvalues --   -0.54961  -0.54715  -0.54672  -0.54519  -0.54369
 Alpha  occ. eigenvalues --   -0.54357  -0.53867  -0.53361  -0.52539  -0.51808
 Alpha  occ. eigenvalues --   -0.51639  -0.51015  -0.50945  -0.50827  -0.50204
 Alpha  occ. eigenvalues --   -0.49929  -0.49552  -0.49244  -0.48974  -0.48891
 Alpha  occ. eigenvalues --   -0.48305  -0.47957  -0.47679  -0.47403  -0.47106
 Alpha  occ. eigenvalues --   -0.46290  -0.46230  -0.45895  -0.45533  -0.45111
 Alpha  occ. eigenvalues --   -0.44919  -0.44771  -0.44479  -0.44338  -0.43860
 Alpha  occ. eigenvalues --   -0.43553  -0.43385  -0.43353  -0.42577  -0.42524
 Alpha  occ. eigenvalues --   -0.42382  -0.41887  -0.41429  -0.41016  -0.40572
 Alpha  occ. eigenvalues --   -0.40515  -0.40050  -0.38804  -0.38425  -0.38307
 Alpha  occ. eigenvalues --   -0.37466  -0.37304  -0.36458  -0.35594  -0.34123
 Alpha  occ. eigenvalues --   -0.33268  -0.33198  -0.32018  -0.31311  -0.30615
 Alpha  occ. eigenvalues --   -0.27293  -0.27061  -0.26272  -0.21198  -0.20236
 Alpha  occ. eigenvalues --   -0.16158  -0.15638
 Alpha virt. eigenvalues --    0.26650   0.26975   0.27489   0.29392   0.30511
 Alpha virt. eigenvalues --    0.32747   0.45576   0.47848   0.48366   0.49247
 Alpha virt. eigenvalues --    0.49345   0.49939   0.50456   0.51439   0.52314

 Mulliken charges:
               1
     1  C   -0.074190
     2  C    0.000637
     3  C   -0.061423
     4  C   -0.089356
     5  C    0.089280
     6  C   -0.012027
     7  N   -0.285729
     8  C    0.017723
     9  C    0.127745
    10  C    0.039902
    11  C   -0.115187
    12  C   -0.105634
    13  C    0.027753
    14  N   -0.291795
    15  C   -0.015579
    16  C   -0.108491
    17  C   -0.102081
    18  C   -0.105804
    19  C   -0.020106
    20  C   -0.110437
    21  C   -0.066471
    22  C    0.319606
    23  O   -0.277187
    24  O   -0.255345
    25  C   -0.055736
    26  C   -0.079490
    27  C   -0.109392
    28  C    0.001734
    29  C   -0.079504
    30  C   -0.061548
    31  C   -0.089622
    32  C    0.095054
    33  C   -0.013910
    34  N   -0.281366
    35  C    0.015207
    36  C    0.134963
    37  C    0.039519
    38  C   -0.115921
    39  C   -0.105387
    40  C    0.040102
    41  N   -0.081410
    42  C   -0.003210
    43  C   -0.097174
    44  C   -0.099149
    45  C   -0.097985
    46  C   -0.006063
    47  C   -0.098818
    48  C   -0.058558
    49  C    0.327114
    50  O   -0.275492
    51  O   -0.255890
    52  C   -0.054056
    53  C   -0.077019
    54  O   -0.461624
    55  H    0.061521
    56  H    0.055882
    57  H    0.058432
    58  H    0.054342
    59  H    0.055718
    60  H    0.051232
    61  H    0.049119
    62  H    0.051889
    63  H    0.050119
    64  H    0.061134
    65  H    0.054951
    66  H    0.051242
    67  H    0.050583
    68  H    0.052824
    69  H    0.062741
    70  H    0.064329
    71  H    0.056419
    72  H    0.051931
    73  H    0.067569
    74  H    0.051848
    75  H    0.065284
    76  H    0.072324
    77  H    0.074669
    78  H    0.077327
    79  H    0.055988
    80  H    0.071675
    81  H    0.076501
    82  H    0.057756
    83  H    0.057512
    84  H    0.053375
    85  H    0.056754
    86  H    0.060280
    87  H    0.054618
    88  H    0.054617
    89  H    0.049454
    90  H    0.053191
    91  H    0.047135
    92  H    0.084216
    93  H    0.057089
    94  H    0.058078
    95  H    0.080703
    96  H    0.047010
    97  H    0.058459
    98  H    0.067175
    99  H    0.095164
   100  H    0.060615
   101  H    0.087578
   102  H    0.102025
   103  H    0.044971
   104  H    0.061931
   105  H    0.077817
   106  H    0.074274
   107  H    0.067460
   108  H    0.071993
   109  H    0.075300
   110  H    0.054685
 Sum of Mulliken charges =  -0.00000

 Dipole moment (field-independent basis, Debye):
    X=              0.8628    Y=              0.9746    Z=             -1.3438  Tot=              1.8708
 Quadrupole moment (field-independent basis, Debye-Ang):
   XX=           -286.1654   YY=           -299.8760   ZZ=           -296.9458
   XY=             -6.7674   XZ=             17.1275   YZ=              2.5235

 Summary of Natural Population Analysis:

                                       Natural Population
                Natural  -----------------------------------------------
    Atom  No    Charge         Core      Valence    Rydberg      Total
 -----------------------------------------------------------------------
      C    1   -0.05595      1.99993     4.05603    0.00000     6.05595
      C    2    0.01437      1.99990     3.98573    0.00000     5.98563
      C    3   -0.03313      1.99994     4.03318    0.00000     6.03313
      C    4   -0.08603      1.99993     4.08609    0.00000     6.08603
      C    5    0.11247      1.99985     3.88767    0.00000     5.88753
      C    6   -0.02354      1.99990     4.02364    0.00000     6.02354
      N    7   -0.27409      1.99998     5.27411    0.00000     7.27409
      C    8    0.01930      1.99996     3.98074    0.00000     5.98070
      C    9    0.17143      1.99996     3.82861    0.00000     5.82857
      C   10    0.07382      1.99993     3.92625    0.00000     5.92618
      C   11   -0.08541      1.99994     4.08547    0.00000     6.08541
      C   12   -0.07408      1.99996     4.07413    0.00000     6.07408
      C   13    0.05002      1.99998     3.95000    0.00000     5.94998
      N   14   -0.27980      1.99999     5.27981    0.00000     7.27980
      C   15    0.03817      1.99993     3.96189    0.00000     5.96183
      C   16   -0.07507      1.99997     4.07510    0.00000     6.07507
      C   17   -0.06851      1.99996     4.06855    0.00000     6.06851
      C   18   -0.07610      1.99995     4.07615    0.00000     6.07610
      C   19    0.03342      1.99994     3.96664    0.00000     5.96658
      C   20   -0.07348      1.99992     4.07355    0.00000     6.07348
      C   21   -0.08443      1.99994     4.08449    0.00000     6.08443
      C   22    0.40290      1.99991     3.59719    0.00000     5.59710
      O   23   -0.31136      1.99999     6.31138    0.00000     8.31136
      O   24   -0.26691      1.99999     6.26692    0.00000     8.26691
      C   25    0.03467      1.99984     3.96549    0.00000     5.96533
      C   26   -0.01696      1.99992     4.01703    0.00000     6.01696
      C   27   -0.08583      1.99995     4.08587    0.00000     6.08583
      C   28    0.01628      1.99990     3.98381    0.00000     5.98372
      C   29   -0.06391      1.99992     4.06399    0.00000     6.06391
      C   30   -0.03314      1.99994     4.03319    0.00000     6.03314
      C   31   -0.08769      1.99993     4.08776    0.00000     6.08769
      C   32    0.11891      1.99985     3.88124    0.00000     5.88109
      C   33   -0.02234      1.99990     4.02245    0.00000     6.02234
      N   34   -0.27132      1.99998     5.27134    0.00000     7.27132
      C   35    0.01116      1.99996     3.98889    0.00000     5.98884
      C   36    0.17863      1.99996     3.82142    0.00000     5.82137
      C   37    0.06870      1.99991     3.93139    0.00000     5.93130
      C   38   -0.08449      1.99993     4.08456    0.00000     6.08449
      C   39   -0.07444      1.99996     4.07448    0.00000     6.07444
      C   40    0.05890      1.99998     3.94112    0.00000     5.94110
      N   41    0.03301      1.99999     4.96700    0.00000     6.96699
      C   42    0.05004      1.99992     3.95005    0.00000     5.94996
      C   43   -0.06333      1.99995     4.06338    0.00000     6.06333
      C   44   -0.06238      1.99994     4.06244    0.00000     6.06238
      C   45   -0.06674      1.99993     4.06680    0.00000     6.06674
      C   46    0.04456      1.99993     3.95551    0.00000     5.95544
      C   47   -0.06080      1.99991     4.06090    0.00000     6.06080
      C   48   -0.07378      1.99994     4.07384    0.00000     6.07378
      C   49    0.40940      1.99991     3.59069    0.00000     5.59060
      O   50   -0.31089      1.99999     6.31090    0.00000     8.31089
      O   51   -0.26826      1.99999     6.26826    0.00000     8.26826
      C   52    0.03623      1.99984     3.96393    0.00000     5.96377
      C   53   -0.01514      1.99993     4.01521    0.00000     6.01514
      O   54   -0.51415      2.00000     6.51415    0.00000     8.51415
      H   55    0.03567      0.00000     0.96433    0.00000     0.96433
      H   56    0.02864      0.00000     0.97136    0.00000     0.97136
      H   57    0.03416      0.00000     0.96584    0.00000     0.96584
      H   58    0.02316      0.00000     0.97684    0.00000     0.97684
      H   59    0.03266      0.00000     0.96734    0.00000     0.96734
      H   60    0.02906      0.00000     0.97094    0.00000     0.97094
      H   61    0.02813      0.00000     0.97187    0.00000     0.97187
      H   62    0.03075      0.00000     0.96925    0.00000     0.96925
      H   63    0.02330      0.00000     0.97670    0.00000     0.97670
      H   64    0.03533      0.00000     0.96467    0.00000     0.96467
      H   65    0.03506      0.00000     0.96494    0.00000     0.96494
      H   66    0.03065      0.00000     0.96935    0.00000     0.96935
      H   67    0.02978      0.00000     0.97022    0.00000     0.97022
      H   68    0.03190      0.00000     0.96810    0.00000     0.96810
      H   69    0.04156      0.00000     0.95844    0.00000     0.95844
      H   70    0.04171      0.00000     0.95829    0.00000     0.95829
      H   71    0.03019      0.00000     0.96981    0.00000     0.96981
      H   72    0.02288      0.00000     0.97712    0.00000     0.97712
      H   73    0.04227      0.00000     0.95773    0.00000     0.95773
      H   74    0.02959      0.00000     0.97041    0.00000     0.97041
      H   75    0.04239      0.00000     0.95761    0.00000     0.95761
      H   76    0.04079      0.00000     0.95921    0.00000     0.95921
      H   77    0.04317      0.00000     0.95683    0.00000     0.95683
      H   78    0.04626      0.00000     0.95374    0.00000     0.95374
      H   79    0.03054      0.00000     0.96946    0.00000     0.96946
      H   80    0.04736      0.00000     0.95264    0.00000     0.95264
      H   81    0.05208      0.00000     0.94792    0.00000     0.94792
      H   82    0.03862      0.00000     0.96138    0.00000     0.96138
      H   83    0.03889      0.00000     0.96111    0.00000     0.96111
      H   84    0.02889      0.00000     0.97111    0.00000     0.97111
      H   85    0.02936      0.00000     0.97064    0.00000     0.97064
      H   86    0.03613      0.00000     0.96387    0.00000     0.96387
      H   87    0.02251      0.00000     0.97749    0.00000     0.97749
      H   88    0.03106      0.00000     0.96894    0.00000     0.96894
      H   89    0.02680      0.00000     0.97320    0.00000     0.97320
      H   90    0.03227      0.00000     0.96773    0.00000     0.96773
      H   91    0.02616      0.00000     0.97384    0.00000     0.97384
      H   92    0.05268      0.00000     0.94732    0.00000     0.94732
      H   93    0.02638      0.00000     0.97362    0.00000     0.97362
      H   94    0.03623      0.00000     0.96377    0.00000     0.96377
      H   95    0.05597      0.00000     0.94403    0.00000     0.94403
      H   96    0.02485      0.00000     0.97515    0.00000     0.97515
      H   97    0.03609      0.00000     0.96391    0.00000     0.96391
      H   98    0.04412      0.00000     0.95588    0.00000     0.95588
      H   99    0.06741      0.00000     0.93259    0.00000     0.93259
      H  100    0.02993      0.00000     0.97007    0.00000     0.97007
      H  101    0.05635      0.00000     0.94365    0.00000     0.94365
      H  102    0.07271      0.00000     0.92729    0.00000     0.92729
      H  103    0.02150      0.00000     0.97850    0.00000     0.97850
      H  104    0.03880      0.00000     0.96120    0.00000     0.96120
      H  105    0.04617      0.00000     0.95383    0.00000     0.95383
      H  106    0.04348      0.00000     0.95652    0.00000     0.95652
      H  107    0.03620      0.00000     0.96380    0.00000     0.96380
      H  108    0.04823      0.00000     0.95177    0.00000     0.95177
      H  109    0.05099      0.00000     0.94901    0.00000     0.94901
      H  110    0.02922      0.00000     0.97078    0.00000     0.97078
 =======================================================================
   * Total *   -0.00000    107.99663   286.00337    0.00000   394.00000

 Normal termination of Gaussian 16 at Thu May 30 10:05:06 2024.
