 Gaussian 16, Revision B.01,
 Gaussian 16:  ES64L-G16RevB.01 20-Dec-2017

 ----------------------------------------------
 # nmr=giao hf/sto-3g pop=nbo geom=connectivity
 ----------------------------------------------

 ------------------
 pleiokomenine_C_1a
 ------------------
 Symbolic Z-matrix:
 Charge =  0 Multiplicity = 1

                         Standard orientation:
 ---------------------------------------------------------------------
 Center     Atomic      Atomic             Coordinates (Angstroms)
 Number     Number       Type             X           Y           Z
 ---------------------------------------------------------------------
      1          6           0       -1.684334    1.938991   -1.317251
      2          6           0       -1.099483    3.210188   -1.228429
      3          6           0       -1.602029    4.141731   -0.294678
      4          6           0       -2.681748    3.825814    0.541979
      5          6           0       -3.252007    2.569498    0.450319
      6          6           0       -2.731281    1.632463   -0.464554
      7          7           0       -4.345479    2.040209    1.185745
      8          6           0       -3.424393    0.314338   -0.224961
      9          6           0       -4.767667    0.893930    0.345410
     10          6           0       -3.742012   -0.648853   -1.367005
     11          6           0       -5.650129    1.452883   -0.860130
     12          6           0       -5.946796    0.366186   -1.895850
     13          6           0       -5.255202   -0.938498   -1.482335
     14          7           0       -3.116755   -1.909907   -0.954848
     15          6           0       -3.070021   -2.868911   -2.036544
     16          6           0       -4.525643   -3.256897   -2.351620
     17          6           0       -5.454985   -2.042950   -2.548295
     18          6           0       -2.450303   -0.495728    0.673541
     19          6           0       -1.890798   -1.559709   -0.274190
     20          6           0       -5.838658   -1.340841   -0.081319
     21          6           0       -5.658112   -0.199027    0.975959
     22          6           0       -5.276557   -0.636802    2.384778
     23          8           0       -5.234173    0.118511    3.349661
     24          8           0       -5.069475   -1.978516    2.479014
     25          6           0       -4.722847   -2.432046    3.787644
     26          6           0       -5.307471    2.973938    1.741667
     27          6           0        0.122438    3.538719   -2.061157
     28          6           0        1.414853    3.114130   -1.397387
     29          6           0        1.730994    1.752661   -1.294939
     30          6           0        2.298983    4.067280   -0.855246
     31          6           0        3.474079    3.675747   -0.198300
     32          6           0        3.749518    2.325309   -0.058344
     33          6           0        2.881014    1.376998   -0.621092
     34          7           0        4.829645    1.715823    0.635198
     35          6           0        3.434333   -0.006232   -0.387689
     36          6           0        4.308989    0.349183    0.883461
     37          6           0        2.494941   -1.174191   -0.036290
     38          6           0        3.362632    0.372319    2.164832
     39          6           0        2.726195   -1.002168    2.413247
     40          6           0        3.050052   -1.925853    1.220797
     41          7           0        2.386144   -2.001955   -1.305992
     42          6           0        1.918166   -3.415171   -1.075817
     43          6           0        2.529279   -4.125385    0.115937
     44          6           0        2.370432   -3.289458    1.379975
     45          6           0        4.129506   -0.436914   -1.704223
     46          6           0        3.733076   -1.887434   -1.947972
     47          6           0        4.608586   -2.091734    1.249040
     48          6           0        5.351584   -0.732483    1.203699
     49          6           0        6.582380   -0.786402    0.316379
     50          8           0        6.791508   -1.647052   -0.530270
     51          8           0        7.455580    0.207197    0.635737
     52          6           0        8.622792    0.248911   -0.185006
     53          6           0        5.441718    2.497321    1.699968
     54          8           0        1.446781   -1.425657   -2.151495
     55          1           0       -1.289137    1.189541   -1.997084
     56          1           0       -1.135679    5.120181   -0.201958
     57          1           0       -3.041182    4.556707    1.256637
     58          1           0       -3.327101   -0.283991   -2.316780
     59          1           0       -5.173648    2.300541   -1.367980
     60          1           0       -6.599115    1.852538   -0.478071
     61          1           0       -7.030462    0.219801   -1.983569
     62          1           0       -5.598420    0.697479   -2.882125
     63          1           0       -2.573163   -2.461329   -2.924982
     64          1           0       -2.524002   -3.769801   -1.734668
     65          1           0       -4.552048   -3.886671   -3.248374
     66          1           0       -4.918005   -3.870031   -1.529901
     67          1           0       -5.247810   -1.623028   -3.541751
     68          1           0       -6.499045   -2.377779   -2.564508
     69          1           0       -2.962971   -0.989892    1.498723
     70          1           0       -1.634772    0.089464    1.114962
     71          1           0       -1.135742   -1.146810   -0.951439
     72          1           0       -1.461068   -2.398856    0.280688
     73          1           0       -6.912619   -1.548273   -0.184828
     74          1           0       -5.396130   -2.284921    0.247800
     75          1           0       -6.665190    0.218656    1.132084
     76          1           0       -5.545288   -2.249270    4.486136
     77          1           0       -4.545585   -3.509838    3.735988
     78          1           0       -3.803818   -1.947379    4.132275
     79          1           0       -5.699476    3.658538    0.981290
     80          1           0       -4.850611    3.565024    2.542476
     81          1           0       -6.154732    2.439869    2.182414
     82          1           0        0.139572    4.615314   -2.274726
     83          1           0        0.044645    3.054392   -3.043670
     84          1           0        1.087361    0.996014   -1.734079
     85          1           0        2.070861    5.127603   -0.935336
     86          1           0        4.134813    4.432182    0.208621
     87          1           0        1.466021   -0.840608    0.158656
     88          1           0        3.929521    0.666351    3.057584
     89          1           0        2.565540    1.120113    2.068674
     90          1           0        3.108236   -1.427150    3.350052
     91          1           0        1.643054   -0.888757    2.547145
     92          1           0        0.831605   -3.343022   -0.936611
     93          1           0        2.106264   -3.957536   -2.009246
     94          1           0        2.024785   -5.088629    0.255648
     95          1           0        3.581490   -4.357328   -0.073740
     96          1           0        1.301301   -3.154504    1.590022
     97          1           0        2.789115   -3.833465    2.235130
     98          1           0        3.749105    0.143469   -2.556993
     99          1           0        5.206289   -0.277852   -1.727355
    100          1           0        3.626447   -2.129888   -3.010414
    101          1           0        4.402438   -2.606590   -1.480624
    102          1           0        4.950945   -2.769062    0.467423
    103          1           0        4.894859   -2.597205    2.183044
    104          1           0        5.753858   -0.562865    2.214278
    105          1           0        9.221231   -0.656230   -0.042759
    106          1           0        9.220854    1.111863    0.120412
    107          1           0        8.349370    0.372926   -1.237669
    108          1           0        6.151894    1.889100    2.268316
    109          1           0        6.005675    3.337564    1.281071
    110          1           0        4.698632    2.889183    2.403740
 ---------------------------------------------------------------------

 SCF Done:  E(RHF) =  -2300.21956063     A.U. after   16 cycles

      1  C    Isotropic =   125.7764   Anisotropy =   148.7156

      2  C    Isotropic =   119.9705   Anisotropy =   158.1387

      3  C    Isotropic =   119.6799   Anisotropy =   153.2224

      4  C    Isotropic =   134.2700   Anisotropy =   142.7060

      5  C    Isotropic =   109.0519   Anisotropy =   128.8246

      6  C    Isotropic =   117.8173   Anisotropy =   142.4224

      7  N    Isotropic =   274.6406   Anisotropy =    84.8064

      8  C    Isotropic =   198.4507   Anisotropy =    12.3147

      9  C    Isotropic =   179.4616   Anisotropy =    41.8205

     10  C    Isotropic =   189.1769   Anisotropy =    33.9180

     11  C    Isotropic =   212.7253   Anisotropy =    21.2262

     12  C    Isotropic =   214.4563   Anisotropy =    19.4473

     13  C    Isotropic =   210.7823   Anisotropy =     8.0728

     14  N    Isotropic =   298.5144   Anisotropy =    58.3881

     15  C    Isotropic =   201.8551   Anisotropy =    39.2941

     16  C    Isotropic =   219.1936   Anisotropy =    11.1158

     17  C    Isotropic =   213.8771   Anisotropy =    22.8087

     18  C    Isotropic =   208.3606   Anisotropy =    32.2228

     19  C    Isotropic =   199.7909   Anisotropy =    42.0637

     20  C    Isotropic =   212.6798   Anisotropy =    20.9286

     21  C    Isotropic =   207.7015   Anisotropy =    13.8424

     22  C    Isotropic =    98.9654   Anisotropy =   100.1407

     23  O    Isotropic =  -142.2816   Anisotropy =   893.6269

     24  O    Isotropic =   284.9997   Anisotropy =   137.0166

     25  C    Isotropic =   197.4555   Anisotropy =    56.8011

     26  C    Isotropic =   210.3717   Anisotropy =    42.6120

     27  C    Isotropic =   206.5324   Anisotropy =    15.1173

     28  C    Isotropic =   120.1478   Anisotropy =   157.2072

     29  C    Isotropic =   121.9416   Anisotropy =   156.7739

     30  C    Isotropic =   119.3760   Anisotropy =   150.0555

     31  C    Isotropic =   134.3694   Anisotropy =   141.2871

     32  C    Isotropic =   109.3283   Anisotropy =   126.0330

     33  C    Isotropic =   119.9164   Anisotropy =   134.8983

     34  N    Isotropic =   274.7229   Anisotropy =    81.0251

     35  C    Isotropic =   195.7664   Anisotropy =    15.4228

     36  C    Isotropic =   181.4633   Anisotropy =    44.4940

     37  C    Isotropic =   179.9982   Anisotropy =    44.2374

     38  C    Isotropic =   213.9632   Anisotropy =    18.7471

     39  C    Isotropic =   212.7599   Anisotropy =    20.3835

     40  C    Isotropic =   212.2356   Anisotropy =     8.6147

     41  N    Isotropic =   235.0268   Anisotropy =    25.8683

     42  C    Isotropic =   195.0168   Anisotropy =    47.8546

     43  C    Isotropic =   223.0457   Anisotropy =     9.5566

     44  C    Isotropic =   215.8490   Anisotropy =    18.1434

     45  C    Isotropic =   211.2427   Anisotropy =    37.2166

     46  C    Isotropic =   191.6795   Anisotropy =    54.0770

     47  C    Isotropic =   212.5903   Anisotropy =    22.8496

     48  C    Isotropic =   209.5335   Anisotropy =    10.7459

     49  C    Isotropic =    96.1130   Anisotropy =    98.8979

     50  O    Isotropic =  -133.5905   Anisotropy =   886.4700

     51  O    Isotropic =   283.3476   Anisotropy =   139.1149

     52  C    Isotropic =   197.1941   Anisotropy =    58.1100

     53  C    Isotropic =   209.9233   Anisotropy =    41.6444

     54  O    Isotropic =     2.3037   Anisotropy =   520.6511

     55  H    Isotropic =    25.5783   Anisotropy =    12.0752

     56  H    Isotropic =    25.9318   Anisotropy =     6.9901

     57  H    Isotropic =    26.7357   Anisotropy =     7.5569

     58  H    Isotropic =    31.8950   Anisotropy =     7.1601

     59  H    Isotropic =    32.9295   Anisotropy =     8.6641

     60  H    Isotropic =    32.1230   Anisotropy =    13.9888

     61  H    Isotropic =    32.2520   Anisotropy =    15.9680

     62  H    Isotropic =    32.6086   Anisotropy =    12.8405

     63  H    Isotropic =    32.1003   Anisotropy =    10.7305

     64  H    Isotropic =    31.5625   Anisotropy =    13.6052

     65  H    Isotropic =    32.3106   Anisotropy =    17.3483

     66  H    Isotropic =    31.7845   Anisotropy =    12.2145

     67  H    Isotropic =    32.4571   Anisotropy =    12.5849

     68  H    Isotropic =    32.2065   Anisotropy =    15.4537

     69  H    Isotropic =    32.1352   Anisotropy =    12.8486

     70  H    Isotropic =    33.1816   Anisotropy =    11.5682

     71  H    Isotropic =    31.3022   Anisotropy =    17.4412

     72  H    Isotropic =    31.8778   Anisotropy =    15.6693

     73  H    Isotropic =    31.9505   Anisotropy =    15.5153

     74  H    Isotropic =    30.1688   Anisotropy =     8.6158

     75  H    Isotropic =    31.1337   Anisotropy =    13.1043

     76  H    Isotropic =    30.5315   Anisotropy =    12.5092

     77  H    Isotropic =    30.5307   Anisotropy =    11.0371

     78  H    Isotropic =    30.6104   Anisotropy =     7.5161

     79  H    Isotropic =    31.9237   Anisotropy =    12.1390

     80  H    Isotropic =    30.8044   Anisotropy =    14.6096

     81  H    Isotropic =    30.9937   Anisotropy =    11.7950

     82  H    Isotropic =    29.9578   Anisotropy =    12.4207

     83  H    Isotropic =    29.9339   Anisotropy =     8.0032

     84  H    Isotropic =    24.7905   Anisotropy =    14.3361

     85  H    Isotropic =    25.7105   Anisotropy =     6.5498

     86  H    Isotropic =    26.6799   Anisotropy =     7.8808

     87  H    Isotropic =    31.0685   Anisotropy =    13.2966

     88  H    Isotropic =    32.3267   Anisotropy =    13.4768

     89  H    Isotropic =    33.2495   Anisotropy =     9.1229

     90  H    Isotropic =    32.4351   Anisotropy =    14.6999

     91  H    Isotropic =    32.7792   Anisotropy =    13.8256

     92  H    Isotropic =    30.7812   Anisotropy =    15.3814

     93  H    Isotropic =    30.8483   Anisotropy =    12.9755

     94  H    Isotropic =    32.3172   Anisotropy =    17.2956

     95  H    Isotropic =    32.5642   Anisotropy =    11.6186

     96  H    Isotropic =    32.6024   Anisotropy =    13.4206

     97  H    Isotropic =    32.4807   Anisotropy =    14.5540

     98  H    Isotropic =    31.6485   Anisotropy =    10.8041

     99  H    Isotropic =    32.8562   Anisotropy =    12.2168

    100  H    Isotropic =    30.9464   Anisotropy =    14.6747

    101  H    Isotropic =    31.4759   Anisotropy =     8.9751

    102  H    Isotropic =    31.6443   Anisotropy =     9.6939

    103  H    Isotropic =    32.2491   Anisotropy =    14.6826

    104  H    Isotropic =    31.2280   Anisotropy =    12.7538

    105  H    Isotropic =    30.5682   Anisotropy =    11.7456

    106  H    Isotropic =    30.5065   Anisotropy =    12.2832

    107  H    Isotropic =    30.6269   Anisotropy =     7.8069

    108  H    Isotropic =    30.9992   Anisotropy =    11.0309

    109  H    Isotropic =    30.7600   Anisotropy =    14.8152

    110  H    Isotropic =    31.9892   Anisotropy =    11.2074

 The electronic state is 1-A.
 Alpha  occ. eigenvalues --  -20.31293 -20.29829 -20.25165 -20.23309 -19.91992
 Alpha  occ. eigenvalues --  -15.47934 -15.33748 -15.32643 -15.29383 -11.17206
 Alpha  occ. eigenvalues --  -11.15437 -11.10990 -11.10114 -11.10062 -11.09439
 Alpha  occ. eigenvalues --  -11.09179 -11.08844 -11.08518 -11.08086 -11.07306
 Alpha  occ. eigenvalues --  -11.07177 -11.07134 -11.06904 -11.06267 -11.06001
 Alpha  occ. eigenvalues --  -11.05888 -11.05848 -11.05624 -11.05538 -11.05528
 Alpha  occ. eigenvalues --  -11.05332 -11.05056 -11.04995 -11.04827 -11.04744
 Alpha  occ. eigenvalues --  -11.04510 -11.04471 -11.03593 -11.03238 -11.03133
 Alpha  occ. eigenvalues --  -11.03122 -11.03101 -11.02989 -11.02935 -11.01408
 Alpha  occ. eigenvalues --  -11.01354 -11.01231 -11.01159 -11.00947 -11.00933
 Alpha  occ. eigenvalues --  -11.00903 -11.00889 -11.00706 -11.00547  -1.38473
 Alpha  occ. eigenvalues --   -1.37006  -1.28394  -1.28247  -1.26407  -1.21205
 Alpha  occ. eigenvalues --   -1.20782  -1.18467  -1.11963  -1.08622  -1.08132
 Alpha  occ. eigenvalues --   -1.06944  -1.06297  -1.04073  -1.03359  -1.00698
 Alpha  occ. eigenvalues --   -0.99772  -0.98672  -0.97899  -0.97276  -0.96606
 Alpha  occ. eigenvalues --   -0.95751  -0.94753  -0.93449  -0.93351  -0.92264
 Alpha  occ. eigenvalues --   -0.91890  -0.91147  -0.90255  -0.89264  -0.87759
 Alpha  occ. eigenvalues --   -0.86133  -0.84457  -0.82967  -0.82422  -0.80977
 Alpha  occ. eigenvalues --   -0.80731  -0.78911  -0.78722  -0.78004  -0.76195
 Alpha  occ. eigenvalues --   -0.76186  -0.74485  -0.73287  -0.72436  -0.72193
 Alpha  occ. eigenvalues --   -0.71291  -0.70401  -0.69502  -0.69031  -0.66958
 Alpha  occ. eigenvalues --   -0.65877  -0.64201  -0.63965  -0.63804  -0.62915
 Alpha  occ. eigenvalues --   -0.62548  -0.61938  -0.61853  -0.61716  -0.60973
 Alpha  occ. eigenvalues --   -0.60424  -0.59797  -0.59361  -0.59238  -0.58953
 Alpha  occ. eigenvalues --   -0.58274  -0.57789  -0.57579  -0.57211  -0.57017
 Alpha  occ. eigenvalues --   -0.56591  -0.56122  -0.55998  -0.55779  -0.55559
 Alpha  occ. eigenvalues --   -0.55395  -0.55229  -0.54557  -0.54105  -0.53739
 Alpha  occ. eigenvalues --   -0.53448  -0.52968  -0.52738  -0.52632  -0.52169
 Alpha  occ. eigenvalues --   -0.52109  -0.51173  -0.50651  -0.50512  -0.50151
 Alpha  occ. eigenvalues --   -0.49904  -0.49680  -0.49510  -0.48839  -0.48601
 Alpha  occ. eigenvalues --   -0.48407  -0.47901  -0.47767  -0.47488  -0.46787
 Alpha  occ. eigenvalues --   -0.46281  -0.46077  -0.45903  -0.45815  -0.45291
 Alpha  occ. eigenvalues --   -0.45098  -0.44757  -0.44666  -0.44175  -0.43800
 Alpha  occ. eigenvalues --   -0.43632  -0.43332  -0.42970  -0.42391  -0.41965
 Alpha  occ. eigenvalues --   -0.41942  -0.41471  -0.41094  -0.40994  -0.40536
 Alpha  occ. eigenvalues --   -0.40338  -0.39571  -0.39315  -0.38779  -0.37611
 Alpha  occ. eigenvalues --   -0.37302  -0.36516  -0.35622  -0.35112  -0.34571
 Alpha  occ. eigenvalues --   -0.33835  -0.32881  -0.32267  -0.32173  -0.30850
 Alpha  occ. eigenvalues --   -0.26734  -0.26436  -0.26047  -0.21013  -0.19639
 Alpha  occ. eigenvalues --   -0.15866  -0.15695
 Alpha virt. eigenvalues --    0.27238   0.27820   0.28196   0.29798   0.30039
 Alpha virt. eigenvalues --    0.31681   0.46585   0.47319   0.48974   0.49202
 Alpha virt. eigenvalues --    0.50210   0.50443   0.50751   0.51586   0.52685

 Mulliken charges:
               1
     1  C   -0.076837
     2  C    0.000538
     3  C   -0.063264
     4  C   -0.091178
     5  C    0.091682
     6  C   -0.014897
     7  N   -0.285487
     8  C    0.015882
     9  C    0.130923
    10  C    0.039162
    11  C   -0.114558
    12  C   -0.108039
    13  C    0.041514
    14  N   -0.292121
    15  C   -0.012888
    16  C   -0.095629
    17  C   -0.100380
    18  C   -0.096690
    19  C   -0.019498
    20  C   -0.104065
    21  C   -0.063819
    22  C    0.315553
    23  O   -0.273814
    24  O   -0.258375
    25  C   -0.055679
    26  C   -0.077452
    27  C   -0.109324
    28  C    0.000249
    29  C   -0.072730
    30  C   -0.060736
    31  C   -0.091650
    32  C    0.087830
    33  C   -0.014664
    34  N   -0.287091
    35  C    0.020688
    36  C    0.128438
    37  C    0.040728
    38  C   -0.115917
    39  C   -0.104840
    40  C    0.028059
    41  N   -0.085869
    42  C   -0.007906
    43  C   -0.110830
    44  C   -0.102136
    45  C   -0.106790
    46  C   -0.012161
    47  C   -0.111485
    48  C   -0.067140
    49  C    0.320427
    50  O   -0.279023
    51  O   -0.254018
    52  C   -0.055634
    53  C   -0.079363
    54  O   -0.455039
    55  H    0.064352
    56  H    0.054457
    57  H    0.057694
    58  H    0.045463
    59  H    0.054007
    60  H    0.048357
    61  H    0.047483
    62  H    0.049328
    63  H    0.045282
    64  H    0.058102
    65  H    0.049084
    66  H    0.053212
    67  H    0.047422
    68  H    0.050033
    69  H    0.058766
    70  H    0.055912
    71  H    0.060697
    72  H    0.052416
    73  H    0.047020
    74  H    0.081864
    75  H    0.061654
    76  H    0.072506
    77  H    0.075580
    78  H    0.073051
    79  H    0.053370
    80  H    0.073103
    81  H    0.075916
    82  H    0.055664
    83  H    0.060804
    84  H    0.089688
    85  H    0.055729
    86  H    0.056796
    87  H    0.086264
    88  H    0.052926
    89  H    0.059780
    90  H    0.051470
    91  H    0.054795
    92  H    0.088605
    93  H    0.080473
    94  H    0.065654
    95  H    0.057403
    96  H    0.056617
    97  H    0.057518
    98  H    0.082241
    99  H    0.071545
   100  H    0.088792
   101  H    0.067904
   102  H    0.065802
   103  H    0.055019
   104  H    0.067200
   105  H    0.072971
   106  H    0.078964
   107  H    0.075704
   108  H    0.075129
   109  H    0.073227
   110  H    0.056530
 Sum of Mulliken charges =  -0.00000

 Dipole moment (field-independent basis, Debye):
    X=              2.6341    Y=             -1.9780    Z=              2.5171  Tot=              4.1457
 Quadrupole moment (field-independent basis, Debye-Ang):
   XX=           -275.3356   YY=           -290.7165   ZZ=           -305.2029
   XY=             -1.3726   XZ=             13.7695   YZ=             -6.3370

 Summary of Natural Population Analysis:

                                       Natural Population
                Natural  -----------------------------------------------
    Atom  No    Charge         Core      Valence    Rydberg      Total
 -----------------------------------------------------------------------
      C    1   -0.05951      1.99992     4.05959    0.00000     6.05951
      C    2    0.01474      1.99990     3.98536    0.00000     5.98526
      C    3   -0.03494      1.99994     4.03500    0.00000     6.03494
      C    4   -0.08894      1.99993     4.08901    0.00000     6.08894
      C    5    0.11558      1.99985     3.88457    0.00000     5.88442
      C    6   -0.02452      1.99990     4.02462    0.00000     6.02452
      N    7   -0.27437      1.99998     5.27439    0.00000     7.27437
      C    8    0.01573      1.99996     3.98432    0.00000     5.98427
      C    9    0.17388      1.99996     3.82616    0.00000     5.82612
      C   10    0.07081      1.99994     3.92925    0.00000     5.92919
      C   11   -0.08434      1.99994     4.08440    0.00000     6.08434
      C   12   -0.07804      1.99996     4.07808    0.00000     6.07804
      C   13    0.06310      1.99998     3.93693    0.00000     5.93690
      N   14   -0.28118      1.99999     5.28119    0.00000     7.28118
      C   15    0.04144      1.99994     3.95862    0.00000     5.95856
      C   16   -0.05838      1.99996     4.05843    0.00000     6.05838
      C   17   -0.06426      1.99995     4.06431    0.00000     6.06426
      C   18   -0.06249      1.99994     4.06255    0.00000     6.06249
      C   19    0.03362      1.99995     3.96643    0.00000     5.96638
      C   20   -0.06634      1.99992     4.06642    0.00000     6.06634
      C   21   -0.07845      1.99994     4.07851    0.00000     6.07845
      C   22    0.39739      1.99991     3.60270    0.00000     5.60261
      O   23   -0.30862      1.99999     6.30863    0.00000     8.30862
      O   24   -0.26932      1.99999     6.26933    0.00000     8.26932
      C   25    0.03498      1.99984     3.96518    0.00000     5.96502
      C   26   -0.01524      1.99992     4.01531    0.00000     6.01524
      C   27   -0.08599      1.99996     4.08603    0.00000     6.08599
      C   28    0.01352      1.99990     3.98658    0.00000     5.98648
      C   29   -0.05194      1.99993     4.05202    0.00000     6.05194
      C   30   -0.03134      1.99994     4.03140    0.00000     6.03134
      C   31   -0.08960      1.99993     4.08967    0.00000     6.08960
      C   32    0.11159      1.99985     3.88855    0.00000     5.88841
      C   33   -0.02965      1.99990     4.02975    0.00000     6.02965
      N   34   -0.27561      1.99998     5.27563    0.00000     7.27561
      C   35    0.02172      1.99996     3.97832    0.00000     5.97828
      C   36    0.17154      1.99996     3.82851    0.00000     5.82846
      C   37    0.07329      1.99991     3.92680    0.00000     5.92671
      C   38   -0.08645      1.99994     4.08651    0.00000     6.08645
      C   39   -0.07289      1.99996     4.07293    0.00000     6.07289
      C   40    0.04983      1.99998     3.95019    0.00000     5.95017
      N   41    0.02599      1.99999     4.97403    0.00000     6.97401
      C   42    0.04339      1.99991     3.95671    0.00000     5.95661
      C   43   -0.08125      1.99997     4.08128    0.00000     6.08125
      C   44   -0.06976      1.99996     4.06980    0.00000     6.06976
      C   45   -0.08108      1.99994     4.08113    0.00000     6.08108
      C   46    0.03852      1.99992     3.96156    0.00000     5.96148
      C   47   -0.07507      1.99992     4.07515    0.00000     6.07507
      C   48   -0.08604      1.99995     4.08609    0.00000     6.08604
      C   49    0.40382      1.99991     3.59627    0.00000     5.59618
      O   50   -0.31342      1.99999     6.31343    0.00000     8.31342
      O   51   -0.26537      1.99999     6.26537    0.00000     8.26537
      C   52    0.03486      1.99984     3.96530    0.00000     5.96514
      C   53   -0.01654      1.99992     4.01662    0.00000     6.01654
      O   54   -0.50592      2.00000     6.50592    0.00000     8.50592
      H   55    0.03875      0.00000     0.96125    0.00000     0.96125
      H   56    0.02739      0.00000     0.97261    0.00000     0.97261
      H   57    0.03379      0.00000     0.96621    0.00000     0.96621
      H   58    0.01488      0.00000     0.98512    0.00000     0.98512
      H   59    0.03110      0.00000     0.96890    0.00000     0.96890
      H   60    0.02645      0.00000     0.97355    0.00000     0.97355
      H   61    0.02719      0.00000     0.97281    0.00000     0.97281
      H   62    0.02890      0.00000     0.97110    0.00000     0.97110
      H   63    0.01708      0.00000     0.98292    0.00000     0.98292
      H   64    0.03228      0.00000     0.96772    0.00000     0.96772
      H   65    0.02778      0.00000     0.97222    0.00000     0.97222
      H   66    0.03134      0.00000     0.96866    0.00000     0.96866
      H   67    0.02581      0.00000     0.97419    0.00000     0.97419
      H   68    0.02847      0.00000     0.97153    0.00000     0.97153
      H   69    0.03493      0.00000     0.96507    0.00000     0.96507
      H   70    0.03382      0.00000     0.96618    0.00000     0.96618
      H   71    0.03107      0.00000     0.96893    0.00000     0.96893
      H   72    0.02715      0.00000     0.97285    0.00000     0.97285
      H   73    0.02412      0.00000     0.97588    0.00000     0.97588
      H   74    0.05492      0.00000     0.94508    0.00000     0.94508
      H   75    0.03857      0.00000     0.96143    0.00000     0.96143
      H   76    0.04104      0.00000     0.95896    0.00000     0.95896
      H   77    0.04461      0.00000     0.95539    0.00000     0.95539
      H   78    0.04169      0.00000     0.95831    0.00000     0.95831
      H   79    0.02807      0.00000     0.97193    0.00000     0.97193
      H   80    0.04877      0.00000     0.95123    0.00000     0.95123
      H   81    0.05171      0.00000     0.94829    0.00000     0.94829
      H   82    0.03674      0.00000     0.96326    0.00000     0.96326
      H   83    0.04198      0.00000     0.95802    0.00000     0.95802
      H   84    0.06049      0.00000     0.93951    0.00000     0.93951
      H   85    0.02846      0.00000     0.97154    0.00000     0.97154
      H   86    0.03291      0.00000     0.96709    0.00000     0.96709
      H   87    0.05022      0.00000     0.94978    0.00000     0.94978
      H   88    0.03058      0.00000     0.96942    0.00000     0.96942
      H   89    0.03631      0.00000     0.96369    0.00000     0.96369
      H   90    0.03015      0.00000     0.96985    0.00000     0.96985
      H   91    0.03313      0.00000     0.96687    0.00000     0.96687
      H   92    0.05689      0.00000     0.94311    0.00000     0.94311
      H   93    0.04990      0.00000     0.95010    0.00000     0.95010
      H   94    0.04594      0.00000     0.95406    0.00000     0.95406
      H   95    0.03679      0.00000     0.96321    0.00000     0.96321
      H   96    0.03553      0.00000     0.96447    0.00000     0.96447
      H   97    0.03656      0.00000     0.96344    0.00000     0.96344
      H   98    0.05915      0.00000     0.94085    0.00000     0.94085
      H   99    0.04852      0.00000     0.95148    0.00000     0.95148
      H  100    0.05797      0.00000     0.94203    0.00000     0.94203
      H  101    0.03605      0.00000     0.96395    0.00000     0.96395
      H  102    0.04067      0.00000     0.95933    0.00000     0.95933
      H  103    0.03285      0.00000     0.96715    0.00000     0.96715
      H  104    0.04441      0.00000     0.95559    0.00000     0.95559
      H  105    0.04133      0.00000     0.95867    0.00000     0.95867
      H  106    0.04771      0.00000     0.95229    0.00000     0.95229
      H  107    0.04409      0.00000     0.95591    0.00000     0.95591
      H  108    0.05074      0.00000     0.94926    0.00000     0.94926
      H  109    0.04877      0.00000     0.95123    0.00000     0.95123
      H  110    0.03101      0.00000     0.96899    0.00000     0.96899
 =======================================================================
   * Total *   -0.00000    107.99668   286.00332    0.00000   394.00000

 Normal termination of Gaussian 16 at Thu May 30 08:45:14 2024.
