 Gaussian 16, Revision B.01,
 Gaussian 16:  ES64L-G16RevB.01 20-Dec-2017

 ----------------------------------------------
 # nmr=giao hf/sto-3g pop=nbo geom=connectivity
 ----------------------------------------------

 ------------------
 pleiokomenine_C_1a
 ------------------
 Symbolic Z-matrix:
 Charge =  0 Multiplicity = 1

                         Standard orientation:
 ---------------------------------------------------------------------
 Center     Atomic      Atomic             Coordinates (Angstroms)
 Number     Number       Type             X           Y           Z
 ---------------------------------------------------------------------
      1          6           0       -1.681095    1.545622   -1.607215
      2          6           0       -1.230311    2.848858   -1.862355
      3          6           0       -1.917179    3.942325   -1.293119
      4          6           0       -3.047828    3.753462   -0.485344
      5          6           0       -3.485913    2.464557   -0.238454
      6          6           0       -2.780862    1.373892   -0.783245
      7          7           0       -4.608713    2.045801    0.531309
      8          6           0       -3.365512    0.106019   -0.212968
      9          6           0       -4.814212    0.654112    0.045760
     10          6           0       -3.458796   -1.180351   -1.032483
     11          6           0       -5.602672    0.718022   -1.341305
     12          6           0       -5.674012   -0.652234   -2.018460
     13          6           0       -4.913971   -1.680555   -1.172549
     14          7           0       -2.764993   -2.175758   -0.212977
     15          6           0       -2.502406   -3.395867   -0.944735
     16          6           0       -3.869205   -4.040088   -1.236650
     17          6           0       -4.884731   -3.065096   -1.864241
     18          6           0       -2.419044   -0.276354    0.958327
     19          6           0       -1.662680   -1.496369    0.426128
     20          6           0       -5.615881   -1.722319    0.231110
     21          6           0       -5.664808   -0.308978    0.901563
     22          6           0       -5.365525   -0.361179    2.391088
     23          8           0       -4.997176   -1.353764    3.006716
     24          8           0       -5.662291    0.829048    2.985673
     25          6           0       -5.387459    0.870102    4.385064
     26          6           0       -5.718231    2.980054    0.631076
     27          6           0        0.029947    3.068564   -2.673297
     28          6           0        1.289616    2.824103   -1.869530
     29          6           0        1.740415    1.513829   -1.662972
     30          6           0        1.983829    3.893903   -1.270404
     31          6           0        3.096190    3.667889   -0.447440
     32          6           0        3.498021    2.365220   -0.202808
     33          6           0        2.833868    1.303611   -0.838349
     34          7           0        4.515505    1.909500    0.681937
     35          6           0        3.497025    0.010745   -0.440854
     36          6           0        4.118592    0.499874    0.924154
     37          6           0        2.635608   -1.223992   -0.187025
     38          6           0        2.989358    0.446567    2.043171
     39          6           0        2.497350   -0.992781    2.262369
     40          6           0        3.065257   -1.901016    1.145647
     41          7           0        2.691164   -2.100351   -1.444277
     42          6           0        3.329209   -3.443815   -1.189102
     43          6           0        2.733585   -4.177052    0.003407
     44          6           0        2.461028   -3.304800    1.229503
     45          6           0        4.414841   -0.424836   -1.588875
     46          6           0        3.518827   -1.309733   -2.436108
     47          6           0        4.618126   -1.903211    1.377659
     48          6           0        5.203023   -0.458423    1.449855
     49          6           0        6.585293   -0.349721    0.823401
     50          8           0        7.095953   -1.198982    0.103548
     51          8           0        7.220656    0.778999    1.241349
     52          6           0        8.521023    0.964437    0.681863
     53          6           0        4.844351    2.795380    1.791380
     54          8           0        1.427319   -2.291172   -1.947631
     55          1           0       -1.153722    0.682270   -2.001798
     56          1           0       -1.562180    4.955722   -1.467090
     57          1           0       -3.551529    4.611586   -0.056408
     58          1           0       -2.977952   -1.058129   -2.012851
     59          1           0       -6.623673    1.087735   -1.177056
     60          1           0       -5.154522    1.432809   -2.042691
     61          1           0       -6.721671   -0.952286   -2.145391
     62          1           0       -5.247673   -0.583523   -3.027120
     63          1           0       -1.952307   -3.206710   -1.874187
     64          1           0       -1.907641   -4.091614   -0.342148
     65          1           0       -3.734642   -4.903894   -1.897736
     66          1           0       -4.288700   -4.428487   -0.299355
     67          1           0       -4.609594   -2.932366   -2.919128
     68          1           0       -5.882764   -3.519176   -1.858618
     69          1           0       -1.713747    0.508464    1.256968
     70          1           0       -2.963683   -0.562535    1.856951
     71          1           0       -0.877731   -1.211097   -0.282314
     72          1           0       -1.222001   -2.077610    1.241327
     73          1           0       -6.646288   -2.082912    0.107950
     74          1           0       -5.129217   -2.458219    0.879528
     75          1           0       -6.717157    0.011940    0.862320
     76          1           0       -6.032808    0.167672    4.921527
     77          1           0       -4.331843    0.653775    4.577904
     78          1           0       -5.602956    1.880721    4.742833
     79          1           0       -6.034886    3.350811   -0.350304
     80          1           0       -5.442009    3.836071    1.255909
     81          1           0       -6.583262    2.505342    1.104346
     82          1           0        0.019396    2.408694   -3.551113
     83          1           0        0.040052    4.086527   -3.083723
     84          1           0        1.221650    0.672703   -2.115889
     85          1           0        1.643297    4.915563   -1.423985
     86          1           0        3.600491    4.510710    0.011119
     87          1           0        1.575746   -0.942450   -0.113071
     88          1           0        3.365572    0.841727    2.995441
     89          1           0        2.131756    1.080118    1.784210
     90          1           0        1.400089   -1.005291    2.269918
     91          1           0        2.815004   -1.351314    3.249694
     92          1           0        3.184566   -4.027739   -2.106636
     93          1           0        4.403039   -3.283580   -1.076565
     94          1           0        1.792261   -4.654033   -0.297968
     95          1           0        3.406058   -4.997901    0.280171
     96          1           0        1.371151   -3.218819    1.339295
     97          1           0        2.805083   -3.822180    2.133672
     98          1           0        4.836574    0.399896   -2.173300
     99          1           0        5.241928   -1.043951   -1.255675
    100          1           0        4.067348   -2.004662   -3.079072
    101          1           0        2.824037   -0.730758   -3.052255
    102          1           0        5.132558   -2.502696    0.627171
    103          1           0        4.838265   -2.404977    2.330630
    104          1           0        5.382348   -0.251390    2.516388
    105          1           0        8.911072    1.920448    1.041818
    106          1           0        8.468386    1.001805   -0.410826
    107          1           0        9.195030    0.168008    1.011870
    108          1           0        5.500272    2.293157    2.508835
    109          1           0        5.382939    3.677217    1.428079
    110          1           0        3.951452    3.127163    2.333409
 ---------------------------------------------------------------------

 SCF Done:  E(RHF) =  -2300.21584614     A.U. after   16 cycles

      1  C    Isotropic =   126.2870   Anisotropy =   149.4506

      2  C    Isotropic =   120.4675   Anisotropy =   156.3319

      3  C    Isotropic =   119.8931   Anisotropy =   150.5958

      4  C    Isotropic =   133.5716   Anisotropy =   142.9425

      5  C    Isotropic =   108.3326   Anisotropy =   128.8270

      6  C    Isotropic =   117.2016   Anisotropy =   143.1365

      7  N    Isotropic =   272.4580   Anisotropy =    82.8983

      8  C    Isotropic =   198.3248   Anisotropy =    12.7986

      9  C    Isotropic =   180.0553   Anisotropy =    43.5914

     10  C    Isotropic =   189.3852   Anisotropy =    34.1143

     11  C    Isotropic =   212.7338   Anisotropy =    20.8262

     12  C    Isotropic =   214.4107   Anisotropy =    19.4427

     13  C    Isotropic =   210.8431   Anisotropy =     7.6243

     14  N    Isotropic =   298.9990   Anisotropy =    58.1694

     15  C    Isotropic =   201.9502   Anisotropy =    38.6666

     16  C    Isotropic =   219.2610   Anisotropy =    11.3187

     17  C    Isotropic =   213.9012   Anisotropy =    22.6272

     18  C    Isotropic =   209.2103   Anisotropy =    32.0559

     19  C    Isotropic =   200.0518   Anisotropy =    40.9442

     20  C    Isotropic =   212.1975   Anisotropy =    20.4192

     21  C    Isotropic =   208.1698   Anisotropy =    10.6305

     22  C    Isotropic =    97.0110   Anisotropy =    98.4343

     23  O    Isotropic =  -136.4267   Anisotropy =   889.1742

     24  O    Isotropic =   284.8717   Anisotropy =   138.6427

     25  C    Isotropic =   197.5053   Anisotropy =    56.8774

     26  C    Isotropic =   209.8865   Anisotropy =    42.2829

     27  C    Isotropic =   206.5440   Anisotropy =    14.8488

     28  C    Isotropic =   120.0404   Anisotropy =   158.0016

     29  C    Isotropic =   123.7834   Anisotropy =   150.1678

     30  C    Isotropic =   118.9469   Anisotropy =   152.6444

     31  C    Isotropic =   133.5410   Anisotropy =   143.1990

     32  C    Isotropic =   108.3485   Anisotropy =   127.7961

     33  C    Isotropic =   120.9829   Anisotropy =   135.6875

     34  N    Isotropic =   273.2622   Anisotropy =    80.8163

     35  C    Isotropic =   197.7042   Anisotropy =    15.2556

     36  C    Isotropic =   180.7287   Anisotropy =    44.8522

     37  C    Isotropic =   175.6166   Anisotropy =    54.8059

     38  C    Isotropic =   213.7478   Anisotropy =    18.7201

     39  C    Isotropic =   212.0493   Anisotropy =    20.9506

     40  C    Isotropic =   211.2083   Anisotropy =     8.1899

     41  N    Isotropic =   227.5396   Anisotropy =    56.5815

     42  C    Isotropic =   196.7356   Anisotropy =    47.2184

     43  C    Isotropic =   221.8727   Anisotropy =    10.5180

     44  C    Isotropic =   217.8831   Anisotropy =    20.3022

     45  C    Isotropic =   214.2276   Anisotropy =    28.1236

     46  C    Isotropic =   186.6175   Anisotropy =    62.5763

     47  C    Isotropic =   211.9475   Anisotropy =    24.7468

     48  C    Isotropic =   208.3667   Anisotropy =    11.8012

     49  C    Isotropic =    96.1964   Anisotropy =    98.0693

     50  O    Isotropic =  -131.5330   Anisotropy =   881.8535

     51  O    Isotropic =   282.9171   Anisotropy =   138.7609

     52  C    Isotropic =   197.2285   Anisotropy =    58.2445

     53  C    Isotropic =   209.5324   Anisotropy =    41.7805

     54  O    Isotropic =    25.6694   Anisotropy =   462.3718

     55  H    Isotropic =    25.6860   Anisotropy =    12.6983

     56  H    Isotropic =    25.8064   Anisotropy =     6.8568

     57  H    Isotropic =    26.5936   Anisotropy =     7.7778

     58  H    Isotropic =    31.9400   Anisotropy =     7.4825

     59  H    Isotropic =    32.1238   Anisotropy =    13.9654

     60  H    Isotropic =    32.9561   Anisotropy =     8.5128

     61  H    Isotropic =    32.2717   Anisotropy =    15.9772

     62  H    Isotropic =    32.6212   Anisotropy =    12.5855

     63  H    Isotropic =    32.0817   Anisotropy =    11.1501

     64  H    Isotropic =    31.6002   Anisotropy =    13.6050

     65  H    Isotropic =    32.3710   Anisotropy =    16.9247

     66  H    Isotropic =    31.8676   Anisotropy =    12.5772

     67  H    Isotropic =    32.5002   Anisotropy =    12.1860

     68  H    Isotropic =    32.2725   Anisotropy =    15.4825

     69  H    Isotropic =    33.4952   Anisotropy =    10.3193

     70  H    Isotropic =    32.5794   Anisotropy =    12.0992

     71  H    Isotropic =    31.7676   Anisotropy =    18.7734

     72  H    Isotropic =    32.0438   Anisotropy =    15.0178

     73  H    Isotropic =    32.0176   Anisotropy =    15.6699

     74  H    Isotropic =    30.3047   Anisotropy =     9.6302

     75  H    Isotropic =    31.2422   Anisotropy =    13.1777

     76  H    Isotropic =    30.5376   Anisotropy =    12.1283

     77  H    Isotropic =    30.6652   Anisotropy =     7.5246

     78  H    Isotropic =    30.5720   Anisotropy =    11.7777

     79  H    Isotropic =    31.8808   Anisotropy =    12.0605

     80  H    Isotropic =    30.7117   Anisotropy =    14.4065

     81  H    Isotropic =    30.8669   Anisotropy =    11.1769

     82  H    Isotropic =    29.9238   Anisotropy =     7.8823

     83  H    Isotropic =    29.9189   Anisotropy =    12.4356

     84  H    Isotropic =    25.1749   Anisotropy =    13.6827

     85  H    Isotropic =    25.6897   Anisotropy =     6.7460

     86  H    Isotropic =    26.6290   Anisotropy =     7.8669

     87  H    Isotropic =    30.7865   Anisotropy =    12.7851

     88  H    Isotropic =    32.3292   Anisotropy =    13.1581

     89  H    Isotropic =    33.2910   Anisotropy =     9.3525

     90  H    Isotropic =    32.6205   Anisotropy =    15.0718

     91  H    Isotropic =    32.3177   Anisotropy =    14.3752

     92  H    Isotropic =    30.8825   Anisotropy =    13.9191

     93  H    Isotropic =    31.8223   Anisotropy =     8.5259

     94  H    Isotropic =    31.2571   Anisotropy =    15.0798

     95  H    Isotropic =    32.2105   Anisotropy =    16.7685

     96  H    Isotropic =    32.0535   Anisotropy =    14.7154

     97  H    Isotropic =    32.3367   Anisotropy =    14.5050

     98  H    Isotropic =    32.8680   Anisotropy =    12.5202

     99  H    Isotropic =    32.5929   Anisotropy =    11.3192

    100  H    Isotropic =    31.1856   Anisotropy =    13.4565

    101  H    Isotropic =    30.3560   Anisotropy =    10.5129

    102  H    Isotropic =    31.5755   Anisotropy =     9.8361

    103  H    Isotropic =    32.1321   Anisotropy =    14.7758

    104  H    Isotropic =    31.2691   Anisotropy =    12.2967

    105  H    Isotropic =    30.5236   Anisotropy =    12.0676

    106  H    Isotropic =    30.6341   Anisotropy =     8.0379

    107  H    Isotropic =    30.5753   Anisotropy =    11.8515

    108  H    Isotropic =    30.9678   Anisotropy =    10.9920

    109  H    Isotropic =    30.7838   Anisotropy =    14.7549

    110  H    Isotropic =    32.0305   Anisotropy =    10.8394

 The electronic state is 1-A.
 Alpha  occ. eigenvalues --  -20.31334 -20.29591 -20.25316 -20.23605 -19.91834
 Alpha  occ. eigenvalues --  -15.48308 -15.34210 -15.32832 -15.28982 -11.17341
 Alpha  occ. eigenvalues --  -11.15443 -11.11085 -11.10393 -11.09822 -11.09386
 Alpha  occ. eigenvalues --  -11.08820 -11.08616 -11.08532 -11.08286 -11.07349
 Alpha  occ. eigenvalues --  -11.07292 -11.07275 -11.07230 -11.06069 -11.05741
 Alpha  occ. eigenvalues --  -11.05686 -11.05657 -11.05451 -11.05429 -11.05314
 Alpha  occ. eigenvalues --  -11.05294 -11.05008 -11.04951 -11.04922 -11.04732
 Alpha  occ. eigenvalues --  -11.04639 -11.04266 -11.04182 -11.02963 -11.02938
 Alpha  occ. eigenvalues --  -11.02892 -11.02874 -11.02823 -11.02608 -11.02262
 Alpha  occ. eigenvalues --  -11.02116 -11.02067 -11.01977 -11.01697 -11.01639
 Alpha  occ. eigenvalues --  -11.01231 -11.01194 -11.00970 -11.00842  -1.38556
 Alpha  occ. eigenvalues --   -1.36870  -1.28390  -1.28140  -1.26543  -1.21602
 Alpha  occ. eigenvalues --   -1.20706  -1.18243  -1.12015  -1.09183  -1.08323
 Alpha  occ. eigenvalues --   -1.07344  -1.06306  -1.03916  -1.03598  -1.00756
 Alpha  occ. eigenvalues --   -0.99888  -0.98679  -0.97922  -0.97243  -0.96862
 Alpha  occ. eigenvalues --   -0.95521  -0.94470  -0.93847  -0.93227  -0.92603
 Alpha  occ. eigenvalues --   -0.92291  -0.91093  -0.90614  -0.89290  -0.87835
 Alpha  occ. eigenvalues --   -0.86436  -0.84447  -0.82633  -0.82368  -0.80770
 Alpha  occ. eigenvalues --   -0.80577  -0.79201  -0.78740  -0.78243  -0.76196
 Alpha  occ. eigenvalues --   -0.75924  -0.74892  -0.73281  -0.73140  -0.72290
 Alpha  occ. eigenvalues --   -0.71458  -0.69738  -0.69383  -0.68635  -0.66665
 Alpha  occ. eigenvalues --   -0.65490  -0.64733  -0.64479  -0.63974  -0.63549
 Alpha  occ. eigenvalues --   -0.62608  -0.61917  -0.61821  -0.61384  -0.60829
 Alpha  occ. eigenvalues --   -0.60372  -0.59599  -0.59131  -0.58980  -0.58704
 Alpha  occ. eigenvalues --   -0.58503  -0.58147  -0.57666  -0.57214  -0.57007
 Alpha  occ. eigenvalues --   -0.56751  -0.56633  -0.56018  -0.55895  -0.55678
 Alpha  occ. eigenvalues --   -0.55246  -0.55137  -0.55098  -0.54230  -0.53840
 Alpha  occ. eigenvalues --   -0.53553  -0.52981  -0.52835  -0.52330  -0.52187
 Alpha  occ. eigenvalues --   -0.51620  -0.51368  -0.50798  -0.50719  -0.50481
 Alpha  occ. eigenvalues --   -0.49921  -0.49768  -0.49392  -0.49312  -0.48862
 Alpha  occ. eigenvalues --   -0.48344  -0.48277  -0.47763  -0.47490  -0.46993
 Alpha  occ. eigenvalues --   -0.46667  -0.46055  -0.45788  -0.45607  -0.45442
 Alpha  occ. eigenvalues --   -0.44771  -0.44621  -0.44589  -0.44272  -0.43859
 Alpha  occ. eigenvalues --   -0.43775  -0.42849  -0.42722  -0.42508  -0.42054
 Alpha  occ. eigenvalues --   -0.41686  -0.41661  -0.41447  -0.40879  -0.40340
 Alpha  occ. eigenvalues --   -0.40183  -0.39391  -0.39139  -0.39035  -0.37856
 Alpha  occ. eigenvalues --   -0.36796  -0.36393  -0.36155  -0.35053  -0.34755
 Alpha  occ. eigenvalues --   -0.33937  -0.33284  -0.32634  -0.32284  -0.31105
 Alpha  occ. eigenvalues --   -0.27410  -0.26342  -0.26253  -0.21613  -0.20069
 Alpha  occ. eigenvalues --   -0.15508  -0.15247
 Alpha virt. eigenvalues --    0.26524   0.26981   0.27946   0.29541   0.29751
 Alpha virt. eigenvalues --    0.31605   0.46223   0.46705   0.48407   0.49163
 Alpha virt. eigenvalues --    0.49459   0.50217   0.50775   0.51567   0.52760

 Mulliken charges:
               1
     1  C   -0.077586
     2  C    0.000398
     3  C   -0.063590
     4  C   -0.090479
     5  C    0.089405
     6  C   -0.013137
     7  N   -0.283232
     8  C    0.015324
     9  C    0.129419
    10  C    0.039664
    11  C   -0.114552
    12  C   -0.107873
    13  C    0.041758
    14  N   -0.291492
    15  C   -0.012947
    16  C   -0.095756
    17  C   -0.100327
    18  C   -0.099548
    19  C   -0.016529
    20  C   -0.104075
    21  C   -0.063828
    22  C    0.318218
    23  O   -0.274446
    24  O   -0.256176
    25  C   -0.055246
    26  C   -0.078474
    27  C   -0.109437
    28  C    0.002268
    29  C   -0.074508
    30  C   -0.059572
    31  C   -0.089496
    32  C    0.089736
    33  C   -0.019521
    34  N   -0.285022
    35  C    0.014388
    36  C    0.128334
    37  C    0.033843
    38  C   -0.115826
    39  C   -0.104087
    40  C    0.032373
    41  N   -0.074868
    42  C   -0.008148
    43  C   -0.102148
    44  C   -0.102227
    45  C   -0.120357
    46  C   -0.013129
    47  C   -0.110980
    48  C   -0.066014
    49  C    0.321110
    50  O   -0.278846
    51  O   -0.254564
    52  C   -0.055320
    53  C   -0.079815
    54  O   -0.457056
    55  H    0.064169
    56  H    0.053959
    57  H    0.057666
    58  H    0.046095
    59  H    0.048322
    60  H    0.053234
    61  H    0.047393
    62  H    0.049413
    63  H    0.050491
    64  H    0.060179
    65  H    0.048940
    66  H    0.053259
    67  H    0.047241
    68  H    0.049434
    69  H    0.053910
    70  H    0.063154
    71  H    0.053521
    72  H    0.056344
    73  H    0.047099
    74  H    0.080000
    75  H    0.062182
    76  H    0.071022
    77  H    0.073209
    78  H    0.075487
    79  H    0.054236
    80  H    0.070406
    81  H    0.075682
    82  H    0.060127
    83  H    0.057020
    84  H    0.074588
    85  H    0.058165
    86  H    0.059351
    87  H    0.091668
    88  H    0.053473
    89  H    0.058307
    90  H    0.057730
    91  H    0.051885
    92  H    0.087127
    93  H    0.060646
    94  H    0.076372
    95  H    0.059941
    96  H    0.064224
    97  H    0.055451
    98  H    0.072214
    99  H    0.070637
   100  H    0.074375
   101  H    0.092602
   102  H    0.064857
   103  H    0.056197
   104  H    0.067055
   105  H    0.078685
   106  H    0.075786
   107  H    0.073260
   108  H    0.076753
   109  H    0.072652
   110  H    0.056802
 Sum of Mulliken charges =  -0.00000

 Dipole moment (field-independent basis, Debye):
    X=              3.0551    Y=              1.7277    Z=              2.0795  Tot=              4.0796
 Quadrupole moment (field-independent basis, Debye-Ang):
   XX=           -273.3282   YY=           -299.7997   ZZ=           -298.1303
   XY=             -6.0977   XZ=              9.3076   YZ=              0.9532

 Summary of Natural Population Analysis:

                                       Natural Population
                Natural  -----------------------------------------------
    Atom  No    Charge         Core      Valence    Rydberg      Total
 -----------------------------------------------------------------------
      C    1   -0.06061      1.99992     4.06069    0.00000     6.06061
      C    2    0.01481      1.99990     3.98529    0.00000     5.98519
      C    3   -0.03584      1.99994     4.03589    0.00000     6.03584
      C    4   -0.08763      1.99993     4.08769    0.00000     6.08763
      C    5    0.11303      1.99985     3.88712    0.00000     5.88697
      C    6   -0.02206      1.99990     4.02216    0.00000     6.02206
      N    7   -0.27203      1.99998     5.27206    0.00000     7.27203
      C    8    0.01535      1.99996     3.98470    0.00000     5.98465
      C    9    0.17327      1.99996     3.82677    0.00000     5.82673
      C   10    0.07102      1.99994     3.92904    0.00000     5.92898
      C   11   -0.08414      1.99994     4.08420    0.00000     6.08414
      C   12   -0.07801      1.99996     4.07805    0.00000     6.07801
      C   13    0.06343      1.99998     3.93659    0.00000     5.93657
      N   14   -0.28062      1.99999     5.28063    0.00000     7.28062
      C   15    0.04112      1.99994     3.95893    0.00000     5.95888
      C   16   -0.05857      1.99996     4.05862    0.00000     6.05857
      C   17   -0.06413      1.99995     4.06418    0.00000     6.06413
      C   18   -0.06576      1.99994     4.06583    0.00000     6.06576
      C   19    0.03665      1.99995     3.96340    0.00000     5.96335
      C   20   -0.06639      1.99992     4.06647    0.00000     6.06639
      C   21   -0.07995      1.99994     4.08001    0.00000     6.07995
      C   22    0.40073      1.99991     3.59936    0.00000     5.59927
      O   23   -0.30845      1.99999     6.30846    0.00000     8.30845
      O   24   -0.26796      1.99999     6.26796    0.00000     8.26796
      C   25    0.03507      1.99984     3.96508    0.00000     5.96493
      C   26   -0.01623      1.99992     4.01630    0.00000     6.01623
      C   27   -0.08616      1.99995     4.08621    0.00000     6.08616
      C   28    0.01595      1.99990     3.98415    0.00000     5.98405
      C   29   -0.05475      1.99992     4.05483    0.00000     6.05475
      C   30   -0.03030      1.99994     4.03035    0.00000     6.03030
      C   31   -0.08693      1.99993     4.08700    0.00000     6.08693
      C   32    0.11414      1.99985     3.88600    0.00000     5.88586
      C   33   -0.03321      1.99990     4.03331    0.00000     6.03321
      N   34   -0.27346      1.99998     5.27348    0.00000     7.27346
      C   35    0.01266      1.99996     3.98739    0.00000     5.98734
      C   36    0.17180      1.99996     3.82824    0.00000     5.82820
      C   37    0.06485      1.99990     3.93526    0.00000     5.93515
      C   38   -0.08641      1.99994     4.08647    0.00000     6.08641
      C   39   -0.07128      1.99995     4.07133    0.00000     6.07128
      C   40    0.05496      1.99998     3.94507    0.00000     5.94504
      N   41    0.03936      1.99999     4.96065    0.00000     6.96064
      C   42    0.04563      1.99990     3.95447    0.00000     5.95437
      C   43   -0.07280      1.99996     4.07284    0.00000     6.07280
      C   44   -0.07112      1.99995     4.07116    0.00000     6.07112
      C   45   -0.09487      1.99995     4.09492    0.00000     6.09487
      C   46    0.03842      1.99991     3.96166    0.00000     5.96158
      C   47   -0.07322      1.99992     4.07330    0.00000     6.07322
      C   48   -0.08300      1.99994     4.08305    0.00000     6.08300
      C   49    0.40426      1.99991     3.59583    0.00000     5.59574
      O   50   -0.31345      1.99998     6.31347    0.00000     8.31345
      O   51   -0.26614      1.99999     6.26615    0.00000     8.26614
      C   52    0.03528      1.99984     3.96488    0.00000     5.96472
      C   53   -0.01707      1.99992     4.01715    0.00000     6.01707
      O   54   -0.51049      2.00000     6.51049    0.00000     8.51049
      H   55    0.03845      0.00000     0.96155    0.00000     0.96155
      H   56    0.02698      0.00000     0.97302    0.00000     0.97302
      H   57    0.03363      0.00000     0.96637    0.00000     0.96637
      H   58    0.01548      0.00000     0.98452    0.00000     0.98452
      H   59    0.02635      0.00000     0.97365    0.00000     0.97365
      H   60    0.03036      0.00000     0.96964    0.00000     0.96964
      H   61    0.02712      0.00000     0.97288    0.00000     0.97288
      H   62    0.02899      0.00000     0.97101    0.00000     0.97101
      H   63    0.02179      0.00000     0.97821    0.00000     0.97821
      H   64    0.03422      0.00000     0.96578    0.00000     0.96578
      H   65    0.02766      0.00000     0.97234    0.00000     0.97234
      H   66    0.03138      0.00000     0.96862    0.00000     0.96862
      H   67    0.02564      0.00000     0.97436    0.00000     0.97436
      H   68    0.02790      0.00000     0.97210    0.00000     0.97210
      H   69    0.03212      0.00000     0.96788    0.00000     0.96788
      H   70    0.03884      0.00000     0.96116    0.00000     0.96116
      H   71    0.02449      0.00000     0.97551    0.00000     0.97551
      H   72    0.03064      0.00000     0.96936    0.00000     0.96936
      H   73    0.02423      0.00000     0.97577    0.00000     0.97577
      H   74    0.05342      0.00000     0.94658    0.00000     0.94658
      H   75    0.03911      0.00000     0.96089    0.00000     0.96089
      H   76    0.03960      0.00000     0.96040    0.00000     0.96040
      H   77    0.04191      0.00000     0.95809    0.00000     0.95809
      H   78    0.04460      0.00000     0.95540    0.00000     0.95540
      H   79    0.02892      0.00000     0.97108    0.00000     0.97108
      H   80    0.04618      0.00000     0.95382    0.00000     0.95382
      H   81    0.05143      0.00000     0.94857    0.00000     0.94857
      H   82    0.04131      0.00000     0.95869    0.00000     0.95869
      H   83    0.03797      0.00000     0.96203    0.00000     0.96203
      H   84    0.04764      0.00000     0.95236    0.00000     0.95236
      H   85    0.03060      0.00000     0.96940    0.00000     0.96940
      H   86    0.03508      0.00000     0.96492    0.00000     0.96492
      H   87    0.05535      0.00000     0.94465    0.00000     0.94465
      H   88    0.03109      0.00000     0.96891    0.00000     0.96891
      H   89    0.03489      0.00000     0.96511    0.00000     0.96511
      H   90    0.03560      0.00000     0.96440    0.00000     0.96440
      H   91    0.03024      0.00000     0.96976    0.00000     0.96976
      H   92    0.05577      0.00000     0.94423    0.00000     0.94423
      H   93    0.02936      0.00000     0.97064    0.00000     0.97064
      H   94    0.05411      0.00000     0.94589    0.00000     0.94589
      H   95    0.03975      0.00000     0.96025    0.00000     0.96025
      H   96    0.04256      0.00000     0.95744    0.00000     0.95744
      H   97    0.03469      0.00000     0.96531    0.00000     0.96531
      H   98    0.05179      0.00000     0.94821    0.00000     0.94821
      H   99    0.04689      0.00000     0.95311    0.00000     0.95311
      H  100    0.04432      0.00000     0.95568    0.00000     0.95568
      H  101    0.05976      0.00000     0.94024    0.00000     0.94024
      H  102    0.03923      0.00000     0.96077    0.00000     0.96077
      H  103    0.03338      0.00000     0.96662    0.00000     0.96662
      H  104    0.04368      0.00000     0.95632    0.00000     0.95632
      H  105    0.04743      0.00000     0.95257    0.00000     0.95257
      H  106    0.04415      0.00000     0.95585    0.00000     0.95585
      H  107    0.04157      0.00000     0.95843    0.00000     0.95843
      H  108    0.05219      0.00000     0.94781    0.00000     0.94781
      H  109    0.04816      0.00000     0.95184    0.00000     0.95184
      H  110    0.03124      0.00000     0.96876    0.00000     0.96876
 =======================================================================
   * Total *   -0.00000    107.99665   286.00335    0.00000   394.00000

 Normal termination of Gaussian 16 at Thu May 30 08:57:07 2024.
