 Gaussian 16, Revision B.01,
 Gaussian 16:  ES64L-G16RevB.01 20-Dec-2017

 ----------------------------------------------
 # nmr=giao hf/sto-3g pop=nbo geom=connectivity
 ----------------------------------------------

 ------------------
 pleiokomenine_C_1a
 ------------------
 Symbolic Z-matrix:
 Charge =  0 Multiplicity = 1

                         Standard orientation:
 ---------------------------------------------------------------------
 Center     Atomic      Atomic             Coordinates (Angstroms)
 Number     Number       Type             X           Y           Z
 ---------------------------------------------------------------------
      1          6           0        2.221765    0.207546    1.813462
      2          6           0        1.170709   -0.594174    2.277195
      3          6           0        1.139799   -1.962812    1.935686
      4          6           0        2.139998   -2.538125    1.141412
      5          6           0        3.165097   -1.736621    0.670437
      6          6           0        3.203139   -0.376266    1.025267
      7          7           0        4.242227   -2.101426   -0.182471
      8          6           0        4.464634    0.234481    0.467569
      9          6           0        4.682078   -0.787595   -0.716573
     10          6           0        4.457062    1.663577   -0.095002
     11          6           0        3.737941   -0.376629   -1.929982
     12          6           0        4.087524    1.019400   -2.460111
     13          6           0        5.116998    1.670771   -1.516503
     14          7           0        5.129793    2.470391    0.925654
     15          6           0        5.556194    3.791964    0.490153
     16          6           0        6.249271    3.834728   -0.871169
     17          6           0        5.425789    3.114514   -1.938780
     18          6           0        5.477612    0.282102    1.637155
     19          6           0        6.148272    1.647457    1.559383
     20          6           0        6.400644    0.778539   -1.621724
     21          6           0        6.103710   -0.711863   -1.300968
     22          6           0        7.215499   -1.359261   -0.493944
     23          8           0        8.091943   -0.752665    0.109394
     24          8           0        7.157371   -2.716880   -0.595633
     25          6           0        8.145921   -3.404035    0.170865
     26          6           0        4.022727   -3.240402   -1.060074
     27          6           0        0.070193    0.004931    3.122977
     28          6           0       -1.030557    0.641170    2.305669
     29          6           0       -2.057628   -0.151248    1.775875
     30          6           0       -1.030011    2.029150    2.060174
     31          6           0       -2.036216    2.630701    1.294473
     32          6           0       -3.035784    1.837375    0.756871
     33          6           0       -3.046947    0.455994    1.016898
     34          7           0       -4.109809    2.235019   -0.083379
     35          6           0       -4.286600   -0.149130    0.404307
     36          6           0       -4.512751    0.953959   -0.709172
     37          6           0       -4.238253   -1.532859   -0.267304
     38          6           0       -3.549780    0.641633   -1.937934
     39          6           0       -3.875699   -0.719829   -2.568334
     40          6           0       -4.907608   -1.447612   -1.681436
     41          7           0       -4.897180   -2.483165    0.717745
     42          6           0       -5.378720   -3.768603    0.097468
     43          6           0       -6.075670   -3.632490   -1.242029
     44          6           0       -5.211011   -2.848495   -2.222011
     45          6           0       -5.319804   -0.300084    1.551130
     46          6           0       -5.965868   -1.667886    1.374401
     47          6           0       -6.195070   -0.556032   -1.744284
     48          6           0       -5.924803    0.906801   -1.312784
     49          6           0       -7.054674    1.468625   -0.468089
     50          8           0       -7.899342    0.789314    0.103190
     51          8           0       -7.047282    2.829262   -0.489467
     52          6           0       -8.056079    3.434115    0.319471
     53          6           0       -3.904128    3.436826   -0.878190
     54          8           0       -3.972516   -2.852114    1.685662
     55          1           0        2.282832    1.259371    2.076781
     56          1           0        0.323918   -2.591092    2.290070
     57          1           0        2.089756   -3.593713    0.902167
     58          1           0        3.429856    2.043572   -0.181451
     59          1           0        3.828119   -1.099815   -2.750806
     60          1           0        2.678540   -0.393237   -1.644938
     61          1           0        4.488061    0.943830   -3.478876
     62          1           0        3.175258    1.624488   -2.533104
     63          1           0        4.661712    4.426195    0.435953
     64          1           0        6.196957    4.257790    1.248808
     65          1           0        6.391517    4.879668   -1.171053
     66          1           0        7.250180    3.395932   -0.797350
     67          1           0        4.489259    3.665930   -2.094005
     68          1           0        5.962020    3.134145   -2.895043
     69          1           0        6.190256   -0.541908    1.651067
     70          1           0        4.964220    0.230014    2.608404
     71          1           0        6.391901    2.017324    2.561296
     72          1           0        7.080220    1.604344    0.993688
     73          1           0        6.787435    0.830021   -2.649860
     74          1           0        7.211091    1.176520   -1.010845
     75          1           0        6.126949   -1.246077   -2.263400
     76          1           0        7.970190   -4.478122    0.064728
     77          1           0        9.147388   -3.177272   -0.207516
     78          1           0        8.062279   -3.143498    1.230749
     79          1           0        3.089850   -3.149479   -1.627938
     80          1           0        3.991448   -4.169258   -0.480485
     81          1           0        4.842204   -3.340520   -1.778346
     82          1           0        0.501620    0.744283    3.810872
     83          1           0       -0.360306   -0.764460    3.777897
     84          1           0       -2.092298   -1.219785    1.973977
     85          1           0       -0.237557    2.651765    2.470027
     86          1           0       -2.012268    3.701193    1.128617
     87          1           0       -3.212055   -1.913435   -0.367513
     88          1           0       -3.641023    1.419094   -2.707438
     89          1           0       -2.494015    0.651787   -1.639701
     90          1           0       -2.955343   -1.307674   -2.673763
     91          1           0       -4.266633   -0.577453   -3.583745
     92          1           0       -4.480154   -4.387935   -0.022971
     93          1           0       -6.024838   -4.246621    0.842340
     94          1           0       -6.265279   -4.632311   -1.649987
     95          1           0       -7.056052   -3.163043   -1.118452
     96          1           0       -4.275077   -3.395898   -2.394108
     97          1           0       -5.718231   -2.787824   -3.192427
     98          1           0       -4.820355   -0.309528    2.530567
     99          1           0       -6.044248    0.509355    1.624850
    100          1           0       -6.840783   -1.656997    0.727946
    101          1           0       -6.224593   -2.145884    2.324883
    102          1           0       -7.015974   -1.001159   -1.183428
    103          1           0       -6.562103   -0.535560   -2.780939
    104          1           0       -5.947946    1.512322   -2.231843
    105          1           0       -7.955843    3.116550    1.362189
    106          1           0       -9.050738    3.191258   -0.067051
    107          1           0       -7.921410    4.518322    0.274213
    108          1           0       -4.717710    3.569993   -1.597768
    109          1           0       -3.898891    4.323951   -0.235879
    110          1           0       -2.963406    3.403632   -1.439476
 ---------------------------------------------------------------------

 SCF Done:  E(RHF) =  -2300.22715450     A.U. after   15 cycles

      1  C    Isotropic =   124.3539   Anisotropy =   148.4892

      2  C    Isotropic =   120.1674   Anisotropy =   158.3383

      3  C    Isotropic =   118.7310   Anisotropy =   153.7841

      4  C    Isotropic =   133.6620   Anisotropy =   143.3313

      5  C    Isotropic =   108.9804   Anisotropy =   126.6441

      6  C    Isotropic =   117.7631   Anisotropy =   139.5845

      7  N    Isotropic =   274.4258   Anisotropy =    82.0113

      8  C    Isotropic =   195.8653   Anisotropy =    12.9773

      9  C    Isotropic =   181.1490   Anisotropy =    44.3926

     10  C    Isotropic =   190.2872   Anisotropy =    29.6839

     11  C    Isotropic =   213.9226   Anisotropy =    18.7714

     12  C    Isotropic =   212.9800   Anisotropy =    21.0399

     13  C    Isotropic =   213.7428   Anisotropy =     8.2598

     14  N    Isotropic =   302.9525   Anisotropy =    55.1178

     15  C    Isotropic =   205.2840   Anisotropy =    34.6499

     16  C    Isotropic =   224.2088   Anisotropy =     8.6196

     17  C    Isotropic =   215.3023   Anisotropy =    20.0888

     18  C    Isotropic =   210.5467   Anisotropy =    37.7414

     19  C    Isotropic =   199.7104   Anisotropy =    42.3882

     20  C    Isotropic =   212.2818   Anisotropy =    21.3804

     21  C    Isotropic =   209.0901   Anisotropy =    10.8564

     22  C    Isotropic =    96.4417   Anisotropy =    99.3098

     23  O    Isotropic =  -134.4020   Anisotropy =   887.0308

     24  O    Isotropic =   284.0319   Anisotropy =   139.3896

     25  C    Isotropic =   197.3420   Anisotropy =    57.7471

     26  C    Isotropic =   209.9282   Anisotropy =    40.5898

     27  C    Isotropic =   206.2537   Anisotropy =    15.9379

     28  C    Isotropic =   119.8891   Anisotropy =   158.6718

     29  C    Isotropic =   121.3584   Anisotropy =   155.2191

     30  C    Isotropic =   119.0615   Anisotropy =   153.0545

     31  C    Isotropic =   134.4356   Anisotropy =   141.9135

     32  C    Isotropic =   109.2771   Anisotropy =   126.0397

     33  C    Isotropic =   119.5718   Anisotropy =   135.5719

     34  N    Isotropic =   275.3363   Anisotropy =    81.4866

     35  C    Isotropic =   195.4589   Anisotropy =    13.5554

     36  C    Isotropic =   181.4365   Anisotropy =    44.1547

     37  C    Isotropic =   180.1587   Anisotropy =    46.0916

     38  C    Isotropic =   213.9330   Anisotropy =    18.8994

     39  C    Isotropic =   212.6546   Anisotropy =    21.6090

     40  C    Isotropic =   212.1234   Anisotropy =     9.2575

     41  N    Isotropic =   234.6044   Anisotropy =    25.3079

     42  C    Isotropic =   194.9404   Anisotropy =    49.3958

     43  C    Isotropic =   222.9958   Anisotropy =    10.4382

     44  C    Isotropic =   215.7673   Anisotropy =    19.2670

     45  C    Isotropic =   211.0147   Anisotropy =    38.4303

     46  C    Isotropic =   191.7584   Anisotropy =    52.5788

     47  C    Isotropic =   212.5777   Anisotropy =    21.9654

     48  C    Isotropic =   209.5115   Anisotropy =    10.6170

     49  C    Isotropic =    96.0959   Anisotropy =    99.4978

     50  O    Isotropic =  -133.8419   Anisotropy =   886.8001

     51  O    Isotropic =   283.3622   Anisotropy =   138.7680

     52  C    Isotropic =   197.1650   Anisotropy =    58.0384

     53  C    Isotropic =   209.9141   Anisotropy =    40.7749

     54  O    Isotropic =     0.6630   Anisotropy =   521.4729

     55  H    Isotropic =    25.6506   Anisotropy =    15.1082

     56  H    Isotropic =    25.3315   Anisotropy =     5.9044

     57  H    Isotropic =    26.5245   Anisotropy =     8.3483

     58  H    Isotropic =    31.6425   Anisotropy =    11.3755

     59  H    Isotropic =    32.3116   Anisotropy =    12.5361

     60  H    Isotropic =    33.1879   Anisotropy =    11.4981

     61  H    Isotropic =    32.4784   Anisotropy =    14.3962

     62  H    Isotropic =    32.7905   Anisotropy =    13.5835

     63  H    Isotropic =    31.7779   Anisotropy =    14.5659

     64  H    Isotropic =    31.7572   Anisotropy =    15.5725

     65  H    Isotropic =    32.6501   Anisotropy =    17.9359

     66  H    Isotropic =    32.5266   Anisotropy =    11.3329

     67  H    Isotropic =    32.7098   Anisotropy =    12.9262

     68  H    Isotropic =    32.5287   Anisotropy =    14.4418

     69  H    Isotropic =    32.9138   Anisotropy =    11.0894

     70  H    Isotropic =    32.2791   Anisotropy =    11.3714

     71  H    Isotropic =    31.7822   Anisotropy =    16.0785

     72  H    Isotropic =    31.9264   Anisotropy =     9.5929

     73  H    Isotropic =    32.2624   Anisotropy =    14.5936

     74  H    Isotropic =    31.3661   Anisotropy =    10.1918

     75  H    Isotropic =    31.2508   Anisotropy =    11.9749

     76  H    Isotropic =    30.5274   Anisotropy =    11.8869

     77  H    Isotropic =    30.5630   Anisotropy =    11.8880

     78  H    Isotropic =    30.6179   Anisotropy =     7.8712

     79  H    Isotropic =    31.9674   Anisotropy =    11.2679

     80  H    Isotropic =    30.7170   Anisotropy =    14.0340

     81  H    Isotropic =    30.9376   Anisotropy =    10.6186

     82  H    Isotropic =    29.8519   Anisotropy =    10.0248

     83  H    Isotropic =    29.7155   Anisotropy =     9.8999

     84  H    Isotropic =    24.6998   Anisotropy =    15.6246

     85  H    Isotropic =    25.4973   Anisotropy =     5.8401

     86  H    Isotropic =    26.5971   Anisotropy =     8.2360

     87  H    Isotropic =    30.8486   Anisotropy =     9.6514

     88  H    Isotropic =    32.2620   Anisotropy =    12.6869

     89  H    Isotropic =    33.0922   Anisotropy =    11.4547

     90  H    Isotropic =    32.6467   Anisotropy =    13.5849

     91  H    Isotropic =    32.3740   Anisotropy =    14.4908

     92  H    Isotropic =    30.7144   Anisotropy =    13.0309

     93  H    Isotropic =    30.8100   Anisotropy =    14.0736

     94  H    Isotropic =    32.3086   Anisotropy =    18.2175

     95  H    Isotropic =    32.5413   Anisotropy =    10.7401

     96  H    Isotropic =    32.5384   Anisotropy =    12.9908

     97  H    Isotropic =    32.4584   Anisotropy =    14.4647

     98  H    Isotropic =    31.6171   Anisotropy =    11.1119

     99  H    Isotropic =    32.8380   Anisotropy =    11.2616

    100  H    Isotropic =    31.4556   Anisotropy =     8.4633

    101  H    Isotropic =    30.9145   Anisotropy =    15.1216

    102  H    Isotropic =    31.6021   Anisotropy =    10.0946

    103  H    Isotropic =    32.2199   Anisotropy =    14.5359

    104  H    Isotropic =    31.1903   Anisotropy =    12.1212

    105  H    Isotropic =    30.5985   Anisotropy =     7.8282

    106  H    Isotropic =    30.5433   Anisotropy =    11.8235

    107  H    Isotropic =    30.4818   Anisotropy =    11.9777

    108  H    Isotropic =    30.9559   Anisotropy =    10.6520

    109  H    Isotropic =    30.6942   Anisotropy =    14.1050

    110  H    Isotropic =    31.9509   Anisotropy =    11.2986

 The electronic state is 1-A.
 Alpha  occ. eigenvalues --  -20.31243 -20.30275 -20.25121 -20.24251 -19.91611
 Alpha  occ. eigenvalues --  -15.47716 -15.33684 -15.32980 -15.30106 -11.17154
 Alpha  occ. eigenvalues --  -11.16165 -11.10947 -11.10226 -11.10069 -11.09252
 Alpha  occ. eigenvalues --  -11.09043 -11.08968 -11.08660 -11.08112 -11.07486
 Alpha  occ. eigenvalues --  -11.07238 -11.07126 -11.06810 -11.06657 -11.06508
 Alpha  occ. eigenvalues --  -11.06146 -11.06048 -11.05767 -11.05653 -11.05562
 Alpha  occ. eigenvalues --  -11.05247 -11.05177 -11.05018 -11.05014 -11.04894
 Alpha  occ. eigenvalues --  -11.04822 -11.04546 -11.04063 -11.03921 -11.03672
 Alpha  occ. eigenvalues --  -11.03641 -11.03555 -11.03346 -11.03166 -11.01244
 Alpha  occ. eigenvalues --  -11.01211 -11.01189 -11.01066 -11.01000 -11.00824
 Alpha  occ. eigenvalues --  -11.00821 -11.00814 -11.00753 -11.00538  -1.38422
 Alpha  occ. eigenvalues --   -1.37499  -1.28297  -1.28091  -1.27302  -1.21160
 Alpha  occ. eigenvalues --   -1.20903  -1.18377  -1.11893  -1.09227  -1.08181
 Alpha  occ. eigenvalues --   -1.06928  -1.06224  -1.04493  -1.03251  -1.00659
 Alpha  occ. eigenvalues --   -1.00182  -0.98735  -0.98309  -0.97549  -0.96550
 Alpha  occ. eigenvalues --   -0.96369  -0.94579  -0.94013  -0.93472  -0.92216
 Alpha  occ. eigenvalues --   -0.91662  -0.91275  -0.91081  -0.89313  -0.87873
 Alpha  occ. eigenvalues --   -0.86282  -0.84614  -0.82923  -0.82455  -0.81571
 Alpha  occ. eigenvalues --   -0.80665  -0.79125  -0.78787  -0.78055  -0.77176
 Alpha  occ. eigenvalues --   -0.76746  -0.74402  -0.73464  -0.72261  -0.71813
 Alpha  occ. eigenvalues --   -0.70999  -0.70332  -0.69492  -0.69054  -0.66892
 Alpha  occ. eigenvalues --   -0.65801  -0.65529  -0.64498  -0.63958  -0.63035
 Alpha  occ. eigenvalues --   -0.62718  -0.61865  -0.61708  -0.61652  -0.60864
 Alpha  occ. eigenvalues --   -0.60743  -0.60198  -0.59716  -0.59278  -0.58905
 Alpha  occ. eigenvalues --   -0.58370  -0.58174  -0.57713  -0.57651  -0.57500
 Alpha  occ. eigenvalues --   -0.56942  -0.56490  -0.56286  -0.55730  -0.55632
 Alpha  occ. eigenvalues --   -0.55145  -0.54837  -0.54322  -0.54176  -0.54142
 Alpha  occ. eigenvalues --   -0.53670  -0.53477  -0.52881  -0.52594  -0.52117
 Alpha  occ. eigenvalues --   -0.52039  -0.51389  -0.51003  -0.50792  -0.50468
 Alpha  occ. eigenvalues --   -0.50266  -0.49763  -0.49479  -0.48924  -0.48551
 Alpha  occ. eigenvalues --   -0.48232  -0.47916  -0.47602  -0.47409  -0.47243
 Alpha  occ. eigenvalues --   -0.46771  -0.46299  -0.45892  -0.45577  -0.45458
 Alpha  occ. eigenvalues --   -0.45182  -0.44886  -0.44635  -0.44455  -0.44095
 Alpha  occ. eigenvalues --   -0.43686  -0.43506  -0.43325  -0.42995  -0.42417
 Alpha  occ. eigenvalues --   -0.42299  -0.42142  -0.41718  -0.41066  -0.40936
 Alpha  occ. eigenvalues --   -0.40373  -0.39963  -0.39528  -0.38687  -0.38082
 Alpha  occ. eigenvalues --   -0.37499  -0.36979  -0.36023  -0.35396  -0.34516
 Alpha  occ. eigenvalues --   -0.33796  -0.33697  -0.32982  -0.32236  -0.31518
 Alpha  occ. eigenvalues --   -0.26497  -0.26268  -0.25575  -0.21015  -0.19822
 Alpha  occ. eigenvalues --   -0.15490  -0.15314
 Alpha virt. eigenvalues --    0.27351   0.27766   0.28317   0.29844   0.30013
 Alpha virt. eigenvalues --    0.30820   0.46724   0.47424   0.48681   0.49155
 Alpha virt. eigenvalues --    0.50026   0.50383   0.50806   0.50968   0.52729

 Mulliken charges:
               1
     1  C   -0.073970
     2  C    0.000835
     3  C   -0.061549
     4  C   -0.090584
     5  C    0.087985
     6  C   -0.013749
     7  N   -0.286795
     8  C    0.018303
     9  C    0.128271
    10  C    0.040834
    11  C   -0.114889
    12  C   -0.105515
    13  C    0.027916
    14  N   -0.291217
    15  C   -0.014523
    16  C   -0.108234
    17  C   -0.101911
    18  C   -0.105238
    19  C   -0.019423
    20  C   -0.110489
    21  C   -0.066325
    22  C    0.319739
    23  O   -0.277142
    24  O   -0.255352
    25  C   -0.055712
    26  C   -0.078725
    27  C   -0.109907
    28  C    0.000151
    29  C   -0.071773
    30  C   -0.061241
    31  C   -0.092324
    32  C    0.087717
    33  C   -0.015020
    34  N   -0.287748
    35  C    0.021206
    36  C    0.128700
    37  C    0.040791
    38  C   -0.115721
    39  C   -0.104809
    40  C    0.028105
    41  N   -0.085466
    42  C   -0.007706
    43  C   -0.110767
    44  C   -0.102141
    45  C   -0.106738
    46  C   -0.012205
    47  C   -0.111582
    48  C   -0.067084
    49  C    0.320462
    50  O   -0.278761
    51  O   -0.254122
    52  C   -0.055662
    53  C   -0.078855
    54  O   -0.453872
    55  H    0.064274
    56  H    0.061839
    57  H    0.058107
    58  H    0.056410
    59  H    0.049679
    60  H    0.054723
    61  H    0.047300
    62  H    0.049645
    63  H    0.053310
    64  H    0.061383
    65  H    0.053082
    66  H    0.050559
    67  H    0.049539
    68  H    0.050717
    69  H    0.062890
    70  H    0.063988
    71  H    0.056902
    72  H    0.050805
    73  H    0.050476
    74  H    0.067929
    75  H    0.064190
    76  H    0.077041
    77  H    0.071788
    78  H    0.075007
    79  H    0.054480
    80  H    0.072025
    81  H    0.075221
    82  H    0.057127
    83  H    0.062254
    84  H    0.091076
    85  H    0.056158
    86  H    0.056611
    87  H    0.086548
    88  H    0.052305
    89  H    0.058577
    90  H    0.053897
    91  H    0.051026
    92  H    0.088819
    93  H    0.080631
    94  H    0.065433
    95  H    0.057203
    96  H    0.056560
    97  H    0.056997
    98  H    0.082763
    99  H    0.071002
   100  H    0.067409
   101  H    0.089040
   102  H    0.066089
   103  H    0.054665
   104  H    0.066777
   105  H    0.075873
   106  H    0.072891
   107  H    0.078806
   108  H    0.074948
   109  H    0.073321
   110  H    0.055712
 Sum of Mulliken charges =  -0.00000

 Dipole moment (field-independent basis, Debye):
    X=             -2.1207    Y=              1.1586    Z=             -6.0455  Tot=              6.5106
 Quadrupole moment (field-independent basis, Debye-Ang):
   XX=           -281.7413   YY=           -292.1074   ZZ=           -300.6422
   XY=             -9.8001   XZ=              7.6342   YZ=              8.0981

 Summary of Natural Population Analysis:

                                       Natural Population
                Natural  -----------------------------------------------
    Atom  No    Charge         Core      Valence    Rydberg      Total
 -----------------------------------------------------------------------
      C    1   -0.05527      1.99993     4.05534    0.00000     6.05527
      C    2    0.01467      1.99990     3.98543    0.00000     5.98533
      C    3   -0.03276      1.99994     4.03282    0.00000     6.03276
      C    4   -0.08774      1.99993     4.08781    0.00000     6.08774
      C    5    0.11109      1.99985     3.88906    0.00000     5.88891
      C    6   -0.02509      1.99990     4.02519    0.00000     6.02509
      N    7   -0.27536      1.99998     5.27538    0.00000     7.27536
      C    8    0.02018      1.99996     3.97986    0.00000     5.97982
      C    9    0.17152      1.99996     3.82852    0.00000     5.82848
      C   10    0.07440      1.99993     3.92566    0.00000     5.92560
      C   11   -0.08512      1.99994     4.08518    0.00000     6.08512
      C   12   -0.07367      1.99996     4.07371    0.00000     6.07367
      C   13    0.05019      1.99998     3.94984    0.00000     5.94981
      N   14   -0.27964      1.99999     5.27965    0.00000     7.27964
      C   15    0.03897      1.99994     3.96110    0.00000     5.96103
      C   16   -0.07459      1.99997     4.07462    0.00000     6.07459
      C   17   -0.06805      1.99996     4.06809    0.00000     6.06805
      C   18   -0.07538      1.99995     4.07543    0.00000     6.07538
      C   19    0.03393      1.99994     3.96613    0.00000     5.96607
      C   20   -0.07376      1.99992     4.07384    0.00000     6.07376
      C   21   -0.08415      1.99994     4.08421    0.00000     6.08415
      C   22    0.40306      1.99991     3.59703    0.00000     5.59694
      O   23   -0.31132      1.99999     6.31133    0.00000     8.31132
      O   24   -0.26696      1.99999     6.26697    0.00000     8.26696
      C   25    0.03468      1.99984     3.96548    0.00000     5.96532
      C   26   -0.01604      1.99992     4.01612    0.00000     6.01604
      C   27   -0.08756      1.99996     4.08760    0.00000     6.08756
      C   28    0.01327      1.99990     3.98683    0.00000     5.98673
      C   29   -0.05074      1.99993     4.05081    0.00000     6.05074
      C   30   -0.03169      1.99994     4.03174    0.00000     6.03169
      C   31   -0.09061      1.99993     4.09068    0.00000     6.09061
      C   32    0.11136      1.99985     3.88878    0.00000     5.88864
      C   33   -0.02948      1.99990     4.02959    0.00000     6.02948
      N   34   -0.27639      1.99998     5.27641    0.00000     7.27639
      C   35    0.02240      1.99996     3.97764    0.00000     5.97760
      C   36    0.17144      1.99996     3.82860    0.00000     5.82856
      C   37    0.07305      1.99991     3.92704    0.00000     5.92695
      C   38   -0.08623      1.99994     4.08629    0.00000     6.08623
      C   39   -0.07268      1.99996     4.07273    0.00000     6.07268
      C   40    0.04996      1.99998     3.95006    0.00000     5.95004
      N   41    0.02637      1.99999     4.97365    0.00000     6.97363
      C   42    0.04350      1.99991     3.95659    0.00000     5.95650
      C   43   -0.08112      1.99997     4.08115    0.00000     6.08112
      C   44   -0.06973      1.99996     4.06977    0.00000     6.06973
      C   45   -0.08102      1.99994     4.08107    0.00000     6.08102
      C   46    0.03828      1.99992     3.96180    0.00000     5.96172
      C   47   -0.07534      1.99992     4.07542    0.00000     6.07534
      C   48   -0.08588      1.99995     4.08594    0.00000     6.08588
      C   49    0.40384      1.99991     3.59625    0.00000     5.59616
      O   50   -0.31315      1.99999     6.31316    0.00000     8.31315
      O   51   -0.26549      1.99999     6.26549    0.00000     8.26549
      C   52    0.03484      1.99984     3.96532    0.00000     5.96516
      C   53   -0.01591      1.99992     4.01599    0.00000     6.01591
      O   54   -0.50480      2.00000     6.50480    0.00000     8.50480
      H   55    0.03824      0.00000     0.96176    0.00000     0.96176
      H   56    0.03412      0.00000     0.96588    0.00000     0.96588
      H   57    0.03406      0.00000     0.96594    0.00000     0.96594
      H   58    0.02517      0.00000     0.97483    0.00000     0.97483
      H   59    0.02765      0.00000     0.97235    0.00000     0.97235
      H   60    0.03180      0.00000     0.96820    0.00000     0.96820
      H   61    0.02643      0.00000     0.97357    0.00000     0.97357
      H   62    0.02870      0.00000     0.97130    0.00000     0.97130
      H   63    0.02631      0.00000     0.97369    0.00000     0.97369
      H   64    0.03561      0.00000     0.96439    0.00000     0.96439
      H   65    0.03329      0.00000     0.96671    0.00000     0.96671
      H   66    0.02998      0.00000     0.97002    0.00000     0.97002
      H   67    0.02879      0.00000     0.97121    0.00000     0.97121
      H   68    0.02988      0.00000     0.97012    0.00000     0.97012
      H   69    0.04037      0.00000     0.95963    0.00000     0.95963
      H   70    0.04264      0.00000     0.95736    0.00000     0.95736
      H   71    0.03073      0.00000     0.96927    0.00000     0.96927
      H   72    0.02180      0.00000     0.97820    0.00000     0.97820
      H   73    0.02841      0.00000     0.97159    0.00000     0.97159
      H   74    0.04268      0.00000     0.95732    0.00000     0.95732
      H   75    0.04143      0.00000     0.95857    0.00000     0.95857
      H   76    0.04601      0.00000     0.95399    0.00000     0.95399
      H   77    0.04028      0.00000     0.95972    0.00000     0.95972
      H   78    0.04350      0.00000     0.95650    0.00000     0.95650
      H   79    0.02916      0.00000     0.97084    0.00000     0.97084
      H   80    0.04766      0.00000     0.95234    0.00000     0.95234
      H   81    0.05092      0.00000     0.94908    0.00000     0.94908
      H   82    0.03853      0.00000     0.96147    0.00000     0.96147
      H   83    0.04332      0.00000     0.95668    0.00000     0.95668
      H   84    0.06187      0.00000     0.93813    0.00000     0.93813
      H   85    0.02893      0.00000     0.97107    0.00000     0.97107
      H   86    0.03289      0.00000     0.96711    0.00000     0.96711
      H   87    0.05054      0.00000     0.94946    0.00000     0.94946
      H   88    0.03002      0.00000     0.96998    0.00000     0.96998
      H   89    0.03523      0.00000     0.96477    0.00000     0.96477
      H   90    0.03228      0.00000     0.96772    0.00000     0.96772
      H   91    0.02971      0.00000     0.97029    0.00000     0.97029
      H   92    0.05713      0.00000     0.94287    0.00000     0.94287
      H   93    0.05005      0.00000     0.94995    0.00000     0.94995
      H   94    0.04573      0.00000     0.95427    0.00000     0.95427
      H   95    0.03658      0.00000     0.96342    0.00000     0.96342
      H   96    0.03546      0.00000     0.96454    0.00000     0.96454
      H   97    0.03608      0.00000     0.96392    0.00000     0.96392
      H   98    0.05960      0.00000     0.94040    0.00000     0.94040
      H   99    0.04799      0.00000     0.95201    0.00000     0.95201
      H  100    0.03561      0.00000     0.96439    0.00000     0.96439
      H  101    0.05823      0.00000     0.94177    0.00000     0.94177
      H  102    0.04096      0.00000     0.95904    0.00000     0.95904
      H  103    0.03257      0.00000     0.96743    0.00000     0.96743
      H  104    0.04404      0.00000     0.95596    0.00000     0.95596
      H  105    0.04424      0.00000     0.95576    0.00000     0.95576
      H  106    0.04126      0.00000     0.95874    0.00000     0.95874
      H  107    0.04757      0.00000     0.95243    0.00000     0.95243
      H  108    0.05058      0.00000     0.94942    0.00000     0.94942
      H  109    0.04883      0.00000     0.95117    0.00000     0.95117
      H  110    0.03025      0.00000     0.96975    0.00000     0.96975
 =======================================================================
   * Total *   -0.00000    107.99671   286.00329    0.00000   394.00000

 Normal termination of Gaussian 16 at Thu May 30 09:18:01 2024.
