 Gaussian 16, Revision B.01,
 Gaussian 16:  ES64L-G16RevB.01 20-Dec-2017

 ----------------------------------------------
 # nmr=giao hf/sto-3g pop=nbo geom=connectivity
 ----------------------------------------------

 ------------------
 pleiokomenine_C_1a
 ------------------
 Symbolic Z-matrix:
 Charge =  0 Multiplicity = 1

                         Standard orientation:
 ---------------------------------------------------------------------
 Center     Atomic      Atomic             Coordinates (Angstroms)
 Number     Number       Type             X           Y           Z
 ---------------------------------------------------------------------
      1          6           0        1.795283    1.745578   -1.617144
      2          6           0        1.262297    3.037252   -1.722723
      3          6           0        1.849918    4.091548   -0.991210
      4          6           0        2.940649    3.868554   -0.137918
      5          6           0        3.422048    2.579933    0.005292
      6          6           0        2.855048    1.536308   -0.752862
      7          7           0        4.430070    2.102458    0.888925
      8          6           0        3.611029    0.268685   -0.447493
      9          6           0        4.076669    0.663547    0.998749
     10          6           0        2.907873   -1.086538   -0.391143
     11          6           0        2.844663    0.524138    2.007348
     12          6           0        2.260887   -0.889504    1.997930
     13          6           0        3.032407   -1.755210    0.995472
     14          7           0        3.675946   -1.926346   -1.319504
     15          6           0        2.977341   -3.159642   -1.614121
     16          6           0        2.939651   -3.977611   -0.311324
     17          6           0        2.426248   -3.175987    0.900264
     18          6           0        4.629235    0.107379   -1.605688
     19          6           0        4.073415   -1.068709   -2.412299
     20          6           0        4.532659   -1.767315    1.458943
     21          6           0        5.122161   -0.319549    1.568920
     22          6           0        6.550627   -0.130821    1.075777
     23          8           0        7.205786    0.890472    1.253695
     24          8           0        7.056180   -1.248226    0.486802
     25          6           0        8.395944   -1.111774    0.012923
     26          6           0        4.730388    2.898582    2.065076
     27          6           0        0.025285    3.272825   -2.562305
     28          6           0       -1.256910    2.959176   -1.819406
     29          6           0       -1.611916    1.626102   -1.568003
     30          6           0       -2.070495    3.993565   -1.316177
     31          6           0       -3.229456    3.712379   -0.579238
     32          6           0       -3.570290    2.391825   -0.337784
     33          6           0       -2.742287    1.362154   -0.812272
     34          7           0       -4.698915    1.891623    0.363053
     35          6           0       -3.246809    0.041750   -0.285495
     36          6           0       -4.754412    0.479180   -0.083392
     37          6           0       -3.200738   -1.224765   -1.156925
     38          6           0       -5.498551    0.395528   -1.487271
     39          6           0       -5.501091   -1.041355   -2.030207
     40          6           0       -4.604724   -1.919372   -1.131156
     41          7           0       -2.044617   -2.049958   -0.613654
     42          6           0       -2.106413   -3.507250   -0.989018
     43          6           0       -3.474057   -4.154880   -0.893186
     44          6           0       -4.508711   -3.349717   -1.670876
     45          6           0       -2.377093   -0.299449    0.954106
     46          6           0       -2.049811   -1.783496    0.858158
     47          6           0       -5.312291   -1.918316    0.267728
     48          6           0       -5.536019   -0.488007    0.818657
     49          6           0       -5.268763   -0.404696    2.311049
     50          8           0       -4.625901   -1.230100    2.948862
     51          8           0       -5.898395    0.670532    2.857772
     52          6           0       -5.658503    0.843328    4.254504
     53          6           0       -5.885636    2.733764    0.371410
     54          8           0       -0.849706   -1.574378   -1.139400
     55          1           0        1.371278    0.915766   -2.174901
     56          1           0        1.442080    5.096931   -1.067518
     57          1           0        3.365039    4.694045    0.420770
     58          1           0        1.858773   -0.997841   -0.701936
     59          1           0        3.166184    0.772652    3.027762
     60          1           0        2.038642    1.235557    1.788805
     61          1           0        2.311556   -1.321559    3.004953
     62          1           0        1.196949   -0.842122    1.734403
     63          1           0        1.963265   -2.978299   -1.990249
     64          1           0        3.514624   -3.737075   -2.374844
     65          1           0        2.313845   -4.866157   -0.453431
     66          1           0        3.950961   -4.342094   -0.088631
     67          1           0        1.335115   -3.094516    0.806170
     68          1           0        2.617089   -3.738576    1.821856
     69          1           0        5.626771   -0.145558   -1.248165
     70          1           0        4.739861    0.990494   -2.246070
     71          1           0        3.226713   -0.766449   -3.039321
     72          1           0        4.846559   -1.519589   -3.041056
     73          1           0        4.598496   -2.242137    2.447525
     74          1           0        5.122087   -2.406970    0.796593
     75          1           0        5.228034   -0.128817    2.648537
     76          1           0        8.679268   -2.048922   -0.474117
     77          1           0        8.463715   -0.305456   -0.724214
     78          1           0        9.080498   -0.934616    0.848127
     79          1           0        3.831293    3.125646    2.648694
     80          1           0        5.208082    3.841382    1.777739
     81          1           0        5.431576    2.371999    2.719615
     82          1           0        0.073966    2.661578   -3.473383
     83          1           0        0.012252    4.311329   -2.917776
     84          1           0       -0.985102    0.807496   -1.910088
     85          1           0       -1.794672    5.032100   -1.485021
     86          1           0       -3.831229    4.529288   -0.198511
     87          1           0       -2.914741   -1.008427   -2.195703
     88          1           0       -6.536091    0.741796   -1.395585
     89          1           0       -5.037203    1.056539   -2.231528
     90          1           0       -5.148081   -1.044065   -3.068986
     91          1           0       -6.527260   -1.429524   -2.054065
     92          1           0       -1.755395   -3.554756   -2.028248
     93          1           0       -1.371110   -4.019168   -0.357815
     94          1           0       -3.419940   -5.167871   -1.308959
     95          1           0       -3.770488   -4.271166    0.153473
     96          1           0       -4.228484   -3.333091   -2.732142
     97          1           0       -5.482374   -3.851227   -1.614368
     98          1           0       -1.418564    0.238587    0.921819
     99          1           0       -2.813442   -0.017775    1.911104
    100          1           0       -2.793119   -2.426141    1.324662
    101          1           0       -1.059646   -2.031045    1.253772
    102          1           0       -4.786982   -2.552047    0.981063
    103          1           0       -6.298607   -2.394457    0.166261
    104          1           0       -6.613499   -0.282603    0.725157
    105          1           0       -4.586909    0.949425    4.451128
    106          1           0       -6.076230    0.004264    4.819381
    107          1           0       -6.160740    1.760691    4.573335
    108          1           0       -6.737559    2.198854    0.802326
    109          1           0       -5.720767    3.621730    0.991110
    110          1           0       -6.167958    3.056442   -0.637095
 ---------------------------------------------------------------------

 SCF Done:  E(RHF) =  -2300.21962995     A.U. after   16 cycles

      1  C    Isotropic =   125.8694   Anisotropy =   148.5119

      2  C    Isotropic =   121.1734   Anisotropy =   156.3699

      3  C    Isotropic =   120.0590   Anisotropy =   151.2517

      4  C    Isotropic =   134.1149   Anisotropy =   143.0684

      5  C    Isotropic =   108.1275   Anisotropy =   129.8174

      6  C    Isotropic =   117.5003   Anisotropy =   143.2242

      7  N    Isotropic =   273.2061   Anisotropy =    83.1171

      8  C    Isotropic =   198.9024   Anisotropy =    13.4053

      9  C    Isotropic =   179.1996   Anisotropy =    42.2456

     10  C    Isotropic =   189.1511   Anisotropy =    32.6847

     11  C    Isotropic =   212.6716   Anisotropy =    20.9327

     12  C    Isotropic =   214.6609   Anisotropy =    17.3590

     13  C    Isotropic =   210.8105   Anisotropy =     7.8393

     14  N    Isotropic =   297.9462   Anisotropy =    56.9289

     15  C    Isotropic =   201.8856   Anisotropy =    39.1210

     16  C    Isotropic =   219.0841   Anisotropy =     7.9735

     17  C    Isotropic =   213.9610   Anisotropy =    21.5735

     18  C    Isotropic =   208.7881   Anisotropy =    31.0561

     19  C    Isotropic =   199.7065   Anisotropy =    40.5503

     20  C    Isotropic =   212.7748   Anisotropy =    22.7123

     21  C    Isotropic =   207.6955   Anisotropy =    15.6456

     22  C    Isotropic =    98.7380   Anisotropy =   100.0899

     23  O    Isotropic =  -142.0949   Anisotropy =   891.6655

     24  O    Isotropic =   284.8907   Anisotropy =   136.9341

     25  C    Isotropic =   197.4237   Anisotropy =    57.9942

     26  C    Isotropic =   210.3488   Anisotropy =    41.9682

     27  C    Isotropic =   206.5521   Anisotropy =    14.8287

     28  C    Isotropic =   119.3620   Anisotropy =   158.0259

     29  C    Isotropic =   122.1540   Anisotropy =   157.1052

     30  C    Isotropic =   119.1384   Anisotropy =   151.2997

     31  C    Isotropic =   134.3578   Anisotropy =   141.2933

     32  C    Isotropic =   109.7889   Anisotropy =   125.7895

     33  C    Isotropic =   119.8239   Anisotropy =   135.8542

     34  N    Isotropic =   275.5775   Anisotropy =    81.9195

     35  C    Isotropic =   195.6871   Anisotropy =    13.5464

     36  C    Isotropic =   181.3959   Anisotropy =    44.4728

     37  C    Isotropic =   180.1966   Anisotropy =    47.5331

     38  C    Isotropic =   213.8106   Anisotropy =    19.4811

     39  C    Isotropic =   212.4998   Anisotropy =    21.9861

     40  C    Isotropic =   211.9923   Anisotropy =     9.6022

     41  N    Isotropic =   235.0076   Anisotropy =    27.6656

     42  C    Isotropic =   194.8977   Anisotropy =    48.5654

     43  C    Isotropic =   222.9671   Anisotropy =    11.4921

     44  C    Isotropic =   215.7602   Anisotropy =    18.7351

     45  C    Isotropic =   211.0465   Anisotropy =    37.5225

     46  C    Isotropic =   191.9266   Anisotropy =    49.9836

     47  C    Isotropic =   212.5300   Anisotropy =    21.5113

     48  C    Isotropic =   209.5228   Anisotropy =     9.2675

     49  C    Isotropic =    96.1113   Anisotropy =    98.6480

     50  O    Isotropic =  -133.4783   Anisotropy =   887.6336

     51  O    Isotropic =   283.2292   Anisotropy =   139.0928

     52  C    Isotropic =   197.2129   Anisotropy =    57.4479

     53  C    Isotropic =   209.9563   Anisotropy =    42.1971

     54  O    Isotropic =     2.1107   Anisotropy =   524.2315

     55  H    Isotropic =    25.6376   Anisotropy =    12.0603

     56  H    Isotropic =    25.9284   Anisotropy =     6.8785

     57  H    Isotropic =    26.7498   Anisotropy =     7.5369

     58  H    Isotropic =    31.4458   Anisotropy =    13.2837

     59  H    Isotropic =    32.3710   Anisotropy =    12.7187

     60  H    Isotropic =    33.4256   Anisotropy =     8.6795

     61  H    Isotropic =    32.4797   Anisotropy =    13.8410

     62  H    Isotropic =    32.6917   Anisotropy =    17.6465

     63  H    Isotropic =    31.8953   Anisotropy =    12.1151

     64  H    Isotropic =    31.6875   Anisotropy =    14.9647

     65  H    Isotropic =    32.3355   Anisotropy =    15.9077

     66  H    Isotropic =    31.8181   Anisotropy =    13.7914

     67  H    Isotropic =    32.2040   Anisotropy =    15.8123

     68  H    Isotropic =    32.3275   Anisotropy =    13.8919

     69  H    Isotropic =    32.0335   Anisotropy =    14.3585

     70  H    Isotropic =    32.8420   Anisotropy =    11.5448

     71  H    Isotropic =    32.0359   Anisotropy =    10.8111

     72  H    Isotropic =    31.7982   Anisotropy =    15.8971

     73  H    Isotropic =    32.0654   Anisotropy =    14.7639

     74  H    Isotropic =    30.1972   Anisotropy =    10.1732

     75  H    Isotropic =    31.1846   Anisotropy =    12.4299

     76  H    Isotropic =    30.5015   Anisotropy =    11.6281

     77  H    Isotropic =    30.5426   Anisotropy =     8.2853

     78  H    Isotropic =    30.5271   Anisotropy =    12.4190

     79  H    Isotropic =    32.0724   Anisotropy =    10.5346

     80  H    Isotropic =    30.8682   Anisotropy =    15.3810

     81  H    Isotropic =    31.0091   Anisotropy =    12.0123

     82  H    Isotropic =    29.9905   Anisotropy =     7.9213

     83  H    Isotropic =    29.9575   Anisotropy =    12.5395

     84  H    Isotropic =    24.7516   Anisotropy =    14.1138

     85  H    Isotropic =    25.7068   Anisotropy =     6.5720

     86  H    Isotropic =    26.6759   Anisotropy =     7.9764

     87  H    Isotropic =    30.6725   Anisotropy =     6.4125

     88  H    Isotropic =    32.1319   Anisotropy =    14.1878

     89  H    Isotropic =    32.7784   Anisotropy =     8.8322

     90  H    Isotropic =    32.4244   Anisotropy =    13.3489

     91  H    Isotropic =    32.2467   Anisotropy =    15.6470

     92  H    Isotropic =    30.6945   Anisotropy =    11.7344

     93  H    Isotropic =    30.8295   Anisotropy =    13.0705

     94  H    Isotropic =    32.2714   Anisotropy =    17.8667

     95  H    Isotropic =    32.5251   Anisotropy =     9.6638

     96  H    Isotropic =    32.4536   Anisotropy =    13.0178

     97  H    Isotropic =    32.3927   Anisotropy =    15.2641

     98  H    Isotropic =    32.1471   Anisotropy =    14.8169

     99  H    Isotropic =    33.0411   Anisotropy =    10.3925

    100  H    Isotropic =    31.4981   Anisotropy =     7.4215

    101  H    Isotropic =    31.1016   Anisotropy =    16.0889

    102  H    Isotropic =    31.6281   Anisotropy =     8.8356

    103  H    Isotropic =    32.1777   Anisotropy =    15.0912

    104  H    Isotropic =    31.1602   Anisotropy =    13.1093

    105  H    Isotropic =    30.7003   Anisotropy =     7.3915

    106  H    Isotropic =    30.5917   Anisotropy =    11.6335

    107  H    Isotropic =    30.5357   Anisotropy =    12.2263

    108  H    Isotropic =    30.9665   Anisotropy =    10.9930

    109  H    Isotropic =    30.7197   Anisotropy =    14.4470

    110  H    Isotropic =    31.9115   Anisotropy =    12.1975

 The electronic state is 1-A.
 Alpha  occ. eigenvalues --  -20.31438 -20.29343 -20.25317 -20.22782 -19.92306
 Alpha  occ. eigenvalues --  -15.48227 -15.33911 -15.32204 -15.28763 -11.17363
 Alpha  occ. eigenvalues --  -11.14941 -11.11112 -11.10337 -11.09714 -11.09549
 Alpha  occ. eigenvalues --  -11.09452 -11.09119 -11.08300 -11.07963 -11.07549
 Alpha  occ. eigenvalues --  -11.07352 -11.07138 -11.06685 -11.06484 -11.06056
 Alpha  occ. eigenvalues --  -11.05821 -11.05490 -11.05306 -11.05278 -11.05272
 Alpha  occ. eigenvalues --  -11.05257 -11.05003 -11.04796 -11.04760 -11.04400
 Alpha  occ. eigenvalues --  -11.04076 -11.03751 -11.03580 -11.02587 -11.02579
 Alpha  occ. eigenvalues --  -11.02549 -11.02540 -11.02387 -11.02344 -11.01517
 Alpha  occ. eigenvalues --  -11.01454 -11.01319 -11.01054 -11.01038 -11.00944
 Alpha  occ. eigenvalues --  -11.00629 -11.00570 -11.00298 -11.00205  -1.38616
 Alpha  occ. eigenvalues --   -1.36508  -1.28644  -1.28435  -1.25913  -1.21413
 Alpha  occ. eigenvalues --   -1.20211  -1.17844  -1.12194  -1.08441  -1.07762
 Alpha  occ. eigenvalues --   -1.06890  -1.06267  -1.03748  -1.03311  -1.00883
 Alpha  occ. eigenvalues --   -0.99552  -0.98740  -0.97713  -0.96988  -0.96594
 Alpha  occ. eigenvalues --   -0.95152  -0.95026  -0.93255  -0.92856  -0.92418
 Alpha  occ. eigenvalues --   -0.92000  -0.90753  -0.89782  -0.89219  -0.87676
 Alpha  occ. eigenvalues --   -0.85979  -0.84165  -0.83184  -0.82212  -0.80916
 Alpha  occ. eigenvalues --   -0.80395  -0.79161  -0.78460  -0.77924  -0.75725
 Alpha  occ. eigenvalues --   -0.75657  -0.74664  -0.72783  -0.72602  -0.71859
 Alpha  occ. eigenvalues --   -0.71138  -0.70585  -0.69163  -0.68492  -0.67167
 Alpha  occ. eigenvalues --   -0.66061  -0.64258  -0.63561  -0.63271  -0.63008
 Alpha  occ. eigenvalues --   -0.62158  -0.62136  -0.61886  -0.61324  -0.61115
 Alpha  occ. eigenvalues --   -0.60010  -0.59904  -0.59251  -0.58852  -0.58613
 Alpha  occ. eigenvalues --   -0.58413  -0.57865  -0.57584  -0.56911  -0.56562
 Alpha  occ. eigenvalues --   -0.56324  -0.56006  -0.55943  -0.55516  -0.55412
 Alpha  occ. eigenvalues --   -0.55267  -0.54872  -0.54652  -0.54046  -0.53584
 Alpha  occ. eigenvalues --   -0.53086  -0.52762  -0.52537  -0.52235  -0.52179
 Alpha  occ. eigenvalues --   -0.52060  -0.51138  -0.50798  -0.50210  -0.50111
 Alpha  occ. eigenvalues --   -0.49763  -0.49297  -0.49154  -0.48799  -0.48516
 Alpha  occ. eigenvalues --   -0.48296  -0.48040  -0.47626  -0.47100  -0.46897
 Alpha  occ. eigenvalues --   -0.46395  -0.46132  -0.45605  -0.45444  -0.45359
 Alpha  occ. eigenvalues --   -0.45191  -0.44730  -0.44414  -0.43828  -0.43582
 Alpha  occ. eigenvalues --   -0.43336  -0.42806  -0.42519  -0.42358  -0.41873
 Alpha  occ. eigenvalues --   -0.41439  -0.41242  -0.41049  -0.40646  -0.40218
 Alpha  occ. eigenvalues --   -0.39889  -0.39659  -0.39040  -0.38733  -0.37828
 Alpha  occ. eigenvalues --   -0.36686  -0.35940  -0.35855  -0.34790  -0.34398
 Alpha  occ. eigenvalues --   -0.33985  -0.32476  -0.32313  -0.31703  -0.30381
 Alpha  occ. eigenvalues --   -0.26548  -0.26151  -0.25683  -0.21058  -0.19399
 Alpha  occ. eigenvalues --   -0.16231  -0.16051
 Alpha virt. eigenvalues --    0.27189   0.27740   0.28602   0.29626   0.30202
 Alpha virt. eigenvalues --    0.32155   0.46401   0.47049   0.48797   0.49708
 Alpha virt. eigenvalues --    0.50037   0.50421   0.50811   0.52162   0.52527

 Mulliken charges:
               1
     1  C   -0.075026
     2  C    0.000001
     3  C   -0.063317
     4  C   -0.091333
     5  C    0.091256
     6  C   -0.012167
     7  N   -0.284631
     8  C    0.015536
     9  C    0.130457
    10  C    0.034196
    11  C   -0.114415
    12  C   -0.107955
    13  C    0.042632
    14  N   -0.291443
    15  C   -0.014981
    16  C   -0.093991
    17  C   -0.100146
    18  C   -0.097155
    19  C   -0.015032
    20  C   -0.104244
    21  C   -0.063964
    22  C    0.315646
    23  O   -0.274798
    24  O   -0.257919
    25  C   -0.055692
    26  C   -0.078471
    27  C   -0.108940
    28  C    0.000397
    29  C   -0.073152
    30  C   -0.060811
    31  C   -0.091514
    32  C    0.087832
    33  C   -0.015628
    34  N   -0.287826
    35  C    0.020764
    36  C    0.128853
    37  C    0.040619
    38  C   -0.115649
    39  C   -0.104821
    40  C    0.028229
    41  N   -0.086002
    42  C   -0.007720
    43  C   -0.110717
    44  C   -0.102246
    45  C   -0.106550
    46  C   -0.012676
    47  C   -0.111668
    48  C   -0.067114
    49  C    0.320540
    50  O   -0.279060
    51  O   -0.253917
    52  C   -0.055712
    53  C   -0.078723
    54  O   -0.456483
    55  H    0.064986
    56  H    0.053413
    57  H    0.057308
    58  H    0.064909
    59  H    0.046602
    60  H    0.054510
    61  H    0.044733
    62  H    0.051830
    63  H    0.051561
    64  H    0.055129
    65  H    0.046270
    66  H    0.051865
    67  H    0.051252
    68  H    0.046409
    69  H    0.060181
    70  H    0.057059
    71  H    0.042626
    72  H    0.057318
    73  H    0.045235
    74  H    0.081619
    75  H    0.060866
    76  H    0.075760
    77  H    0.073913
    78  H    0.071699
    79  H    0.052702
    80  H    0.072436
    81  H    0.076246
    82  H    0.058471
    83  H    0.055494
    84  H    0.088471
    85  H    0.056167
    86  H    0.056922
    87  H    0.086057
    88  H    0.053081
    89  H    0.058552
    90  H    0.054166
    91  H    0.051801
    92  H    0.088576
    93  H    0.080163
    94  H    0.066160
    95  H    0.057645
    96  H    0.056842
    97  H    0.057750
    98  H    0.082276
    99  H    0.071929
   100  H    0.068863
   101  H    0.087496
   102  H    0.065926
   103  H    0.055252
   104  H    0.067259
   105  H    0.075803
   106  H    0.073118
   107  H    0.079143
   108  H    0.075041
   109  H    0.073615
   110  H    0.056175
 Sum of Mulliken charges =  -0.00000

 Dipole moment (field-independent basis, Debye):
    X=             -6.5733    Y=             -2.2993    Z=              0.8425  Tot=              7.0146
 Quadrupole moment (field-independent basis, Debye-Ang):
   XX=           -281.4110   YY=           -294.2882   ZZ=           -293.4496
   XY=             -2.6481   XZ=              0.8897   YZ=              4.8615

 Summary of Natural Population Analysis:

                                       Natural Population
                Natural  -----------------------------------------------
    Atom  No    Charge         Core      Valence    Rydberg      Total
 -----------------------------------------------------------------------
      C    1   -0.05780      1.99992     4.05788    0.00000     6.05780
      C    2    0.01347      1.99990     3.98663    0.00000     5.98653
      C    3   -0.03494      1.99994     4.03499    0.00000     6.03494
      C    4   -0.08908      1.99993     4.08914    0.00000     6.08908
      C    5    0.11567      1.99985     3.88448    0.00000     5.88433
      C    6   -0.02152      1.99990     4.02162    0.00000     6.02152
      N    7   -0.27364      1.99998     5.27366    0.00000     7.27364
      C    8    0.01478      1.99996     3.98526    0.00000     5.98522
      C    9    0.17420      1.99996     3.82584    0.00000     5.82580
      C   10    0.06530      1.99993     3.93476    0.00000     5.93470
      C   11   -0.08391      1.99994     4.08398    0.00000     6.08391
      C   12   -0.07810      1.99996     4.07814    0.00000     6.07810
      C   13    0.06435      1.99998     3.93567    0.00000     5.93565
      N   14   -0.28019      1.99999     5.28020    0.00000     7.28019
      C   15    0.03929      1.99994     3.96077    0.00000     5.96071
      C   16   -0.05646      1.99996     4.05651    0.00000     6.05646
      C   17   -0.06411      1.99995     4.06416    0.00000     6.06411
      C   18   -0.06349      1.99994     4.06354    0.00000     6.06349
      C   19    0.03838      1.99995     3.96166    0.00000     5.96162
      C   20   -0.06633      1.99992     4.06641    0.00000     6.06633
      C   21   -0.07884      1.99994     4.07890    0.00000     6.07884
      C   22    0.39763      1.99991     3.60246    0.00000     5.60237
      O   23   -0.30965      1.99999     6.30967    0.00000     8.30965
      O   24   -0.26880      1.99999     6.26881    0.00000     8.26880
      C   25    0.03496      1.99984     3.96520    0.00000     5.96504
      C   26   -0.01648      1.99992     4.01656    0.00000     6.01648
      C   27   -0.08538      1.99996     4.08543    0.00000     6.08538
      C   28    0.01417      1.99990     3.98593    0.00000     5.98583
      C   29   -0.05249      1.99993     4.05256    0.00000     6.05249
      C   30   -0.03155      1.99994     4.03161    0.00000     6.03155
      C   31   -0.08939      1.99993     4.08946    0.00000     6.08939
      C   32    0.11124      1.99986     3.88891    0.00000     5.88876
      C   33   -0.03049      1.99990     4.03059    0.00000     6.03049
      N   34   -0.27634      1.99998     5.27637    0.00000     7.27634
      C   35    0.02193      1.99996     3.97811    0.00000     5.97807
      C   36    0.17163      1.99996     3.82842    0.00000     5.82837
      C   37    0.07330      1.99991     3.92679    0.00000     5.92670
      C   38   -0.08620      1.99994     4.08626    0.00000     6.08620
      C   39   -0.07258      1.99995     4.07262    0.00000     6.07258
      C   40    0.05012      1.99998     3.94991    0.00000     5.94988
      N   41    0.02598      1.99999     4.97403    0.00000     6.97402
      C   42    0.04362      1.99991     3.95647    0.00000     5.95638
      C   43   -0.08109      1.99997     4.08112    0.00000     6.08109
      C   44   -0.06992      1.99996     4.06996    0.00000     6.06992
      C   45   -0.08062      1.99994     4.08068    0.00000     6.08062
      C   46    0.03783      1.99992     3.96226    0.00000     5.96217
      C   47   -0.07540      1.99992     4.07547    0.00000     6.07540
      C   48   -0.08597      1.99995     4.08602    0.00000     6.08597
      C   49    0.40392      1.99991     3.59617    0.00000     5.59608
      O   50   -0.31347      1.99999     6.31349    0.00000     8.31347
      O   51   -0.26527      1.99999     6.26528    0.00000     8.26527
      C   52    0.03483      1.99984     3.96533    0.00000     5.96517
      C   53   -0.01582      1.99992     4.01590    0.00000     6.01582
      O   54   -0.50733      2.00000     6.50733    0.00000     8.50733
      H   55    0.03931      0.00000     0.96069    0.00000     0.96069
      H   56    0.02643      0.00000     0.97357    0.00000     0.97357
      H   57    0.03337      0.00000     0.96663    0.00000     0.96663
      H   58    0.03234      0.00000     0.96766    0.00000     0.96766
      H   59    0.02473      0.00000     0.97527    0.00000     0.97527
      H   60    0.03149      0.00000     0.96851    0.00000     0.96851
      H   61    0.02471      0.00000     0.97529    0.00000     0.97529
      H   62    0.03114      0.00000     0.96886    0.00000     0.96886
      H   63    0.02281      0.00000     0.97719    0.00000     0.97719
      H   64    0.02944      0.00000     0.97056    0.00000     0.97056
      H   65    0.02523      0.00000     0.97477    0.00000     0.97477
      H   66    0.03004      0.00000     0.96996    0.00000     0.96996
      H   67    0.02927      0.00000     0.97073    0.00000     0.97073
      H   68    0.02511      0.00000     0.97489    0.00000     0.97489
      H   69    0.03636      0.00000     0.96364    0.00000     0.96364
      H   70    0.03503      0.00000     0.96497    0.00000     0.96497
      H   71    0.01489      0.00000     0.98511    0.00000     0.98511
      H   72    0.03131      0.00000     0.96869    0.00000     0.96869
      H   73    0.02243      0.00000     0.97757    0.00000     0.97757
      H   74    0.05469      0.00000     0.94531    0.00000     0.94531
      H   75    0.03784      0.00000     0.96216    0.00000     0.96216
      H   76    0.04478      0.00000     0.95522    0.00000     0.95522
      H   77    0.04248      0.00000     0.95752    0.00000     0.95752
      H   78    0.04028      0.00000     0.95972    0.00000     0.95972
      H   79    0.02750      0.00000     0.97250    0.00000     0.97250
      H   80    0.04825      0.00000     0.95175    0.00000     0.95175
      H   81    0.05198      0.00000     0.94802    0.00000     0.94802
      H   82    0.03984      0.00000     0.96016    0.00000     0.96016
      H   83    0.03656      0.00000     0.96344    0.00000     0.96344
      H   84    0.05944      0.00000     0.94056    0.00000     0.94056
      H   85    0.02886      0.00000     0.97114    0.00000     0.97114
      H   86    0.03304      0.00000     0.96696    0.00000     0.96696
      H   87    0.05004      0.00000     0.94996    0.00000     0.94996
      H   88    0.03073      0.00000     0.96927    0.00000     0.96927
      H   89    0.03521      0.00000     0.96479    0.00000     0.96479
      H   90    0.03247      0.00000     0.96753    0.00000     0.96753
      H   91    0.03040      0.00000     0.96960    0.00000     0.96960
      H   92    0.05687      0.00000     0.94313    0.00000     0.94313
      H   93    0.04963      0.00000     0.95037    0.00000     0.95037
      H   94    0.04638      0.00000     0.95362    0.00000     0.95362
      H   95    0.03696      0.00000     0.96304    0.00000     0.96304
      H   96    0.03570      0.00000     0.96430    0.00000     0.96430
      H   97    0.03678      0.00000     0.96322    0.00000     0.96322
      H   98    0.05911      0.00000     0.94089    0.00000     0.94089
      H   99    0.04878      0.00000     0.95122    0.00000     0.95122
      H  100    0.03696      0.00000     0.96304    0.00000     0.96304
      H  101    0.05679      0.00000     0.94321    0.00000     0.94321
      H  102    0.04079      0.00000     0.95921    0.00000     0.95921
      H  103    0.03311      0.00000     0.96689    0.00000     0.96689
      H  104    0.04448      0.00000     0.95552    0.00000     0.95552
      H  105    0.04418      0.00000     0.95582    0.00000     0.95582
      H  106    0.04146      0.00000     0.95854    0.00000     0.95854
      H  107    0.04785      0.00000     0.95215    0.00000     0.95215
      H  108    0.05069      0.00000     0.94931    0.00000     0.94931
      H  109    0.04911      0.00000     0.95089    0.00000     0.95089
      H  110    0.03064      0.00000     0.96936    0.00000     0.96936
 =======================================================================
   * Total *   -0.00000    107.99667   286.00333    0.00000   394.00000

 Normal termination of Gaussian 16 at Thu May 30 08:39:13 2024.
