 Gaussian 16, Revision B.01,
 Gaussian 16:  ES64L-G16RevB.01 20-Dec-2017

 ----------------------------------------------
 # nmr=giao hf/sto-3g pop=nbo geom=connectivity
 ----------------------------------------------

 ------------------
 pleiokomenine_C_1a
 ------------------
 Symbolic Z-matrix:
 Charge =  0 Multiplicity = 1

                         Standard orientation:
 ---------------------------------------------------------------------
 Center     Atomic      Atomic             Coordinates (Angstroms)
 Number     Number       Type             X           Y           Z
 ---------------------------------------------------------------------
      1          6           0       -1.725974    1.859127   -1.366186
      2          6           0       -1.049380    3.073769   -1.185217
      3          6           0       -1.409096    3.917253   -0.112378
      4          6           0       -2.435836    3.569339    0.775193
      5          6           0       -3.100404    2.370027    0.590479
      6          6           0       -2.725034    1.519000   -0.468563
      7          7           0       -4.170464    1.829790    1.359623
      8          6           0       -3.491548    0.227129   -0.325713
      9          6           0       -4.736972    0.817214    0.429657
     10          6           0       -3.979533   -0.563291   -1.540379
     11          6           0       -5.674365    1.573803   -0.619305
     12          6           0       -6.138546    0.644292   -1.741704
     13          6           0       -5.515151   -0.741995   -1.545530
     14          7           0       -3.418369   -1.900309   -1.343836
     15          6           0       -3.542777   -2.730888   -2.520202
     16          6           0       -5.045354   -2.982116   -2.734666
     17          6           0       -5.889814   -1.693720   -2.707091
     18          6           0       -2.502473   -0.748633    0.370185
     19          6           0       -2.114817   -1.725152   -0.743979
     20          6           0       -6.009790   -1.270814   -0.152422
     21          6           0       -5.653064   -0.282935    1.007080
     22          6           0       -5.170449   -1.002897    2.256142
     23          8           0       -4.958696   -2.205958    2.344709
     24          8           0       -5.102215   -0.144960    3.313242
     25          6           0       -4.634734   -0.740334    4.522570
     26          6           0       -5.025347    2.780764    2.051486
     27          6           0        0.123965    3.427108   -2.075468
     28          6           0        1.457799    3.015625   -1.488824
     29          6           0        1.733637    1.661404   -1.259050
     30          6           0        2.437073    3.980924   -1.172683
     31          6           0        3.668257    3.614858   -0.607820
     32          6           0        3.910394    2.279348   -0.338889
     33          6           0        2.944388    1.317660   -0.682382
     34          7           0        5.044073    1.692339    0.294584
     35          6           0        3.489104   -0.051765   -0.371861
     36          6           0        4.488679    0.396809    0.763553
     37          6           0        2.577376   -1.161049    0.171538
     38          6           0        3.677254    0.643633    2.107273
     39          6           0        2.956763   -0.624431    2.563654
     40          6           0        3.134120   -1.738737    1.509502
     41          7           0        2.437947   -2.179716   -0.953001
     42          6           0        2.259003   -3.596273   -0.457783
     43          6           0        1.508227   -3.623318    0.857165
     44          6           0        2.360015   -3.000241    1.962701
     45          6           0        4.043075   -0.578931   -1.714828
     46          6           0        3.684291   -2.046573   -1.780256
     47          6           0        4.675799   -2.007082    1.441483
     48          6           0        5.488731   -0.713138    1.132091
     49          6           0        6.616818   -0.958037    0.148055
     50          8           0        6.683248   -1.916297   -0.611325
     51          8           0        7.579015   -0.002961    0.267373
     52          6           0        8.659108   -0.139153   -0.656331
     53          6           0        5.804533    2.555746    1.186065
     54          8           0        1.341437   -1.846217   -1.724537
     55          1           0       -1.433025    1.170168   -2.153491
     56          1           0       -0.867675    4.847108    0.048754
     57          1           0       -2.682317    4.230440    1.597447
     58          1           0       -3.622354   -0.109105   -2.474919
     59          1           0       -5.179815    2.444507   -1.067439
     60          1           0       -6.556372    1.983048   -0.108814
     61          1           0       -7.233714    0.580662   -1.745554
     62          1           0       -5.850039    1.069548   -2.711111
     63          1           0       -3.096515   -2.258274   -3.403238
     64          1           0       -3.043870   -3.695137   -2.371596
     65          1           0       -5.410530   -3.658800   -1.951130
     66          1           0       -5.199036   -3.500128   -3.688294
     67          1           0       -5.734285   -1.172973   -3.661424
     68          1           0       -6.954442   -1.952566   -2.664613
     69          1           0       -2.969594   -1.305593    1.181436
     70          1           0       -1.606815   -0.275937    0.790856
     71          1           0       -1.390851   -1.285340   -1.437904
     72          1           0       -1.710721   -2.655433   -0.334863
     73          1           0       -7.101327   -1.392344   -0.180238
     74          1           0       -5.613450   -2.273484    0.037850
     75          1           0       -6.603570    0.172670    1.324597
     76          1           0       -3.640611   -1.175711    4.379599
     77          1           0       -4.561325    0.044859    5.279995
     78          1           0       -5.343483   -1.496222    4.874621
     79          1           0       -5.385981    3.572356    1.384939
     80          1           0       -4.485868    3.243689    2.884660
     81          1           0       -5.899211    2.278091    2.477275
     82          1           0        0.107172    4.507341   -2.269972
     83          1           0        0.007766    2.954273   -3.059496
     84          1           0        1.022026    0.884855   -1.529292
     85          1           0        2.241875    5.034243   -1.362498
     86          1           0        4.399423    4.380194   -0.375712
     87          1           0        1.555506   -0.792855    0.342322
     88          1           0        4.353698    0.974999    2.906177
     89          1           0        2.940936    1.450569    2.006285
     90          1           0        3.351441   -0.945650    3.536134
     91          1           0        1.893708   -0.401241    2.721974
     92          1           0        1.718811   -4.134220   -1.244971
     93          1           0        3.246755   -4.053760   -0.345636
     94          1           0        1.255634   -4.654222    1.128839
     95          1           0        0.563346   -3.074787    0.767026
     96          1           0        3.065034   -3.756226    2.331487
     97          1           0        1.699920   -2.777668    2.810442
     98          1           0        3.551316   -0.094645   -2.570463
     99          1           0        5.108956   -0.396846   -1.864277
    100          1           0        3.460379   -2.396708   -2.793094
    101          1           0        4.457861   -2.677658   -1.346241
    102          1           0        4.892731   -2.814451    0.739097
    103          1           0        5.016015   -2.389152    2.414708
    104          1           0        6.001799   -0.442868    2.067865
    105          1           0        9.339825    0.703568   -0.507852
    106          1           0        8.290752   -0.108744   -1.686710
    107          1           0        9.208089   -1.066628   -0.466826
    108          1           0        6.550791    1.978539    1.740206
    109          1           0        6.348777    3.312820    0.611303
    110          1           0        5.164131    3.063277    1.916327
 ---------------------------------------------------------------------

 SCF Done:  E(RHF) =  -2300.21489547     A.U. after   16 cycles

      1  C    Isotropic =   125.4132   Anisotropy =   147.8703

      2  C    Isotropic =   119.6886   Anisotropy =   160.0471

      3  C    Isotropic =   119.7410   Anisotropy =   155.1142

      4  C    Isotropic =   133.7224   Anisotropy =   143.7882

      5  C    Isotropic =   108.3140   Anisotropy =   129.4366

      6  C    Isotropic =   117.0163   Anisotropy =   144.1250

      7  N    Isotropic =   272.7211   Anisotropy =    83.0264

      8  C    Isotropic =   198.0346   Anisotropy =    11.7687

      9  C    Isotropic =   180.0332   Anisotropy =    43.0169

     10  C    Isotropic =   189.3585   Anisotropy =    33.1446

     11  C    Isotropic =   212.7227   Anisotropy =    21.3136

     12  C    Isotropic =   214.4532   Anisotropy =    19.3356

     13  C    Isotropic =   210.8451   Anisotropy =     8.0803

     14  N    Isotropic =   299.4772   Anisotropy =    58.2398

     15  C    Isotropic =   202.1516   Anisotropy =    39.6078

     16  C    Isotropic =   219.3541   Anisotropy =    10.7524

     17  C    Isotropic =   213.9180   Anisotropy =    22.9313

     18  C    Isotropic =   208.9519   Anisotropy =    32.8267

     19  C    Isotropic =   199.5678   Anisotropy =    43.9917

     20  C    Isotropic =   212.2049   Anisotropy =    20.2816

     21  C    Isotropic =   208.1737   Anisotropy =    10.4580

     22  C    Isotropic =    96.9958   Anisotropy =    98.4665

     23  O    Isotropic =  -136.3665   Anisotropy =   889.1197

     24  O    Isotropic =   284.9459   Anisotropy =   138.1310

     25  C    Isotropic =   197.4965   Anisotropy =    56.6247

     26  C    Isotropic =   209.8898   Anisotropy =    42.0250

     27  C    Isotropic =   206.4982   Anisotropy =    16.2179

     28  C    Isotropic =   119.7323   Anisotropy =   158.1188

     29  C    Isotropic =   123.3989   Anisotropy =   155.5148

     30  C    Isotropic =   119.2910   Anisotropy =   148.7717

     31  C    Isotropic =   133.9263   Anisotropy =   142.0251

     32  C    Isotropic =   109.3251   Anisotropy =   126.0622

     33  C    Isotropic =   118.9646   Anisotropy =   136.9319

     34  N    Isotropic =   273.9088   Anisotropy =    81.5195

     35  C    Isotropic =   196.7997   Anisotropy =    17.0058

     36  C    Isotropic =   181.6316   Anisotropy =    43.3412

     37  C    Isotropic =   179.4312   Anisotropy =    48.1209

     38  C    Isotropic =   213.9882   Anisotropy =    19.1575

     39  C    Isotropic =   212.4210   Anisotropy =    21.1736

     40  C    Isotropic =   212.0308   Anisotropy =     9.4939

     41  N    Isotropic =   229.7990   Anisotropy =    28.5992

     42  C    Isotropic =   191.4421   Anisotropy =    54.1609

     43  C    Isotropic =   220.9992   Anisotropy =     5.9349

     44  C    Isotropic =   214.3468   Anisotropy =    25.5264

     45  C    Isotropic =   210.9757   Anisotropy =    37.7297

     46  C    Isotropic =   187.8613   Anisotropy =    61.6911

     47  C    Isotropic =   210.6830   Anisotropy =    25.3566

     48  C    Isotropic =   209.0380   Anisotropy =    11.2894

     49  C    Isotropic =    96.6119   Anisotropy =    98.5664

     50  O    Isotropic =  -131.4884   Anisotropy =   884.4519

     51  O    Isotropic =   283.8434   Anisotropy =   139.1656

     52  C    Isotropic =   197.2166   Anisotropy =    58.0424

     53  C    Isotropic =   209.9468   Anisotropy =    41.9244

     54  O    Isotropic =    15.3687   Anisotropy =   489.8950

     55  H    Isotropic =    25.6499   Anisotropy =    11.9918

     56  H    Isotropic =    26.0339   Anisotropy =     7.1364

     57  H    Isotropic =    26.6537   Anisotropy =     7.7097

     58  H    Isotropic =    32.0185   Anisotropy =     7.1616

     59  H    Isotropic =    32.9386   Anisotropy =     8.7447

     60  H    Isotropic =    32.1123   Anisotropy =    13.7552

     61  H    Isotropic =    32.2770   Anisotropy =    15.9384

     62  H    Isotropic =    32.6399   Anisotropy =    12.9595

     63  H    Isotropic =    32.3268   Anisotropy =    10.8716

     64  H    Isotropic =    31.5845   Anisotropy =    13.8244

     65  H    Isotropic =    31.8386   Anisotropy =    12.4601

     66  H    Isotropic =    32.3996   Anisotropy =    17.4235

     67  H    Isotropic =    32.5369   Anisotropy =    12.6480

     68  H    Isotropic =    32.2651   Anisotropy =    15.3650

     69  H    Isotropic =    32.4754   Anisotropy =    10.7451

     70  H    Isotropic =    33.0922   Anisotropy =    13.1075

     71  H    Isotropic =    31.4760   Anisotropy =    15.2536

     72  H    Isotropic =    31.7151   Anisotropy =    16.3696

     73  H    Isotropic =    32.0037   Anisotropy =    15.5752

     74  H    Isotropic =    30.2706   Anisotropy =     9.7151

     75  H    Isotropic =    31.2318   Anisotropy =    12.9386

     76  H    Isotropic =    30.6323   Anisotropy =     7.9437

     77  H    Isotropic =    30.5616   Anisotropy =    11.4552

     78  H    Isotropic =    30.5159   Anisotropy =    12.0621

     79  H    Isotropic =    31.8725   Anisotropy =    12.1699

     80  H    Isotropic =    30.7218   Anisotropy =    14.0487

     81  H    Isotropic =    30.8643   Anisotropy =    11.0223

     82  H    Isotropic =    29.9389   Anisotropy =    12.4000

     83  H    Isotropic =    30.0100   Anisotropy =     8.2598

     84  H    Isotropic =    25.3874   Anisotropy =    15.1666

     85  H    Isotropic =    25.6732   Anisotropy =     6.5322

     86  H    Isotropic =    26.6055   Anisotropy =     7.8219

     87  H    Isotropic =    31.0373   Anisotropy =    12.7933

     88  H    Isotropic =    32.3440   Anisotropy =    13.5001

     89  H    Isotropic =    33.2989   Anisotropy =     8.9253

     90  H    Isotropic =    32.3478   Anisotropy =    14.5756

     91  H    Isotropic =    32.7695   Anisotropy =    13.0931

     92  H    Isotropic =    30.5836   Anisotropy =    12.9754

     93  H    Isotropic =    31.9571   Anisotropy =     9.6985

     94  H    Isotropic =    32.2730   Anisotropy =    16.7586

     95  H    Isotropic =    31.8921   Anisotropy =    16.7106

     96  H    Isotropic =    32.5244   Anisotropy =    13.7441

     97  H    Isotropic =    32.3806   Anisotropy =    12.5829

     98  H    Isotropic =    31.8420   Anisotropy =    10.6822

     99  H    Isotropic =    32.8022   Anisotropy =    11.8679

    100  H    Isotropic =    30.7000   Anisotropy =    13.8250

    101  H    Isotropic =    31.5178   Anisotropy =     9.9881

    102  H    Isotropic =    31.8384   Anisotropy =     9.6450

    103  H    Isotropic =    32.1698   Anisotropy =    14.7119

    104  H    Isotropic =    31.2082   Anisotropy =    12.7879

    105  H    Isotropic =    30.5136   Anisotropy =    12.3253

    106  H    Isotropic =    30.6361   Anisotropy =     7.7075

    107  H    Isotropic =    30.5804   Anisotropy =    11.7335

    108  H    Isotropic =    30.9858   Anisotropy =    11.1301

    109  H    Isotropic =    30.7572   Anisotropy =    14.8029

    110  H    Isotropic =    31.9680   Anisotropy =    11.2810

 The electronic state is 1-A.
 Alpha  occ. eigenvalues --  -20.31360 -20.29604 -20.25292 -20.23598 -19.91620
 Alpha  occ. eigenvalues --  -15.47831 -15.33906 -15.32758 -15.28832 -11.17311
 Alpha  occ. eigenvalues --  -11.15444 -11.11064 -11.10212 -11.09861 -11.09029
 Alpha  occ. eigenvalues --  -11.08981 -11.08488 -11.08258 -11.08189 -11.07290
 Alpha  occ. eigenvalues --  -11.07258 -11.07208 -11.06929 -11.05778 -11.05725
 Alpha  occ. eigenvalues --  -11.05646 -11.05634 -11.05511 -11.05427 -11.05213
 Alpha  occ. eigenvalues --  -11.05091 -11.04940 -11.04839 -11.04776 -11.04647
 Alpha  occ. eigenvalues --  -11.04489 -11.04314 -11.03863 -11.03026 -11.02959
 Alpha  occ. eigenvalues --  -11.02949 -11.02902 -11.02805 -11.02563 -11.01807
 Alpha  occ. eigenvalues --  -11.01571 -11.01512 -11.01429 -11.01315 -11.01249
 Alpha  occ. eigenvalues --  -11.01101 -11.01083 -11.00854 -11.00761  -1.38579
 Alpha  occ. eigenvalues --   -1.36877  -1.28451  -1.28007  -1.26541  -1.21354
 Alpha  occ. eigenvalues --   -1.20631  -1.18175  -1.11737  -1.08735  -1.08169
 Alpha  occ. eigenvalues --   -1.07021  -1.06119  -1.03866  -1.03254  -1.00496
 Alpha  occ. eigenvalues --   -0.99772  -0.98732  -0.97912  -0.97235  -0.96725
 Alpha  occ. eigenvalues --   -0.95527  -0.94628  -0.93579  -0.93061  -0.92524
 Alpha  occ. eigenvalues --   -0.92090  -0.90988  -0.90631  -0.89225  -0.87593
 Alpha  occ. eigenvalues --   -0.86078  -0.84305  -0.82760  -0.82268  -0.80950
 Alpha  occ. eigenvalues --   -0.80591  -0.78661  -0.78301  -0.77710  -0.76156
 Alpha  occ. eigenvalues --   -0.75688  -0.74454  -0.73137  -0.72932  -0.72243
 Alpha  occ. eigenvalues --   -0.71539  -0.69690  -0.69342  -0.68649  -0.66831
 Alpha  occ. eigenvalues --   -0.65456  -0.64940  -0.64478  -0.63676  -0.62648
 Alpha  occ. eigenvalues --   -0.62445  -0.61958  -0.61346  -0.61205  -0.60917
 Alpha  occ. eigenvalues --   -0.60301  -0.59417  -0.59099  -0.58984  -0.58849
 Alpha  occ. eigenvalues --   -0.58319  -0.57830  -0.57334  -0.57061  -0.56955
 Alpha  occ. eigenvalues --   -0.56709  -0.56487  -0.56251  -0.55827  -0.55622
 Alpha  occ. eigenvalues --   -0.55250  -0.55151  -0.54740  -0.54187  -0.54045
 Alpha  occ. eigenvalues --   -0.53445  -0.52906  -0.52725  -0.52439  -0.52200
 Alpha  occ. eigenvalues --   -0.51669  -0.51260  -0.50945  -0.50773  -0.50325
 Alpha  occ. eigenvalues --   -0.49589  -0.49318  -0.49046  -0.48958  -0.48539
 Alpha  occ. eigenvalues --   -0.48198  -0.47937  -0.47625  -0.47344  -0.47162
 Alpha  occ. eigenvalues --   -0.46176  -0.45849  -0.45748  -0.45560  -0.45267
 Alpha  occ. eigenvalues --   -0.44732  -0.44592  -0.44453  -0.44186  -0.43703
 Alpha  occ. eigenvalues --   -0.43307  -0.43041  -0.42889  -0.42380  -0.42222
 Alpha  occ. eigenvalues --   -0.41553  -0.41442  -0.41240  -0.40775  -0.40277
 Alpha  occ. eigenvalues --   -0.40153  -0.39696  -0.38984  -0.38898  -0.37619
 Alpha  occ. eigenvalues --   -0.36819  -0.36381  -0.35526  -0.34955  -0.34650
 Alpha  occ. eigenvalues --   -0.33955  -0.33234  -0.32391  -0.32270  -0.31043
 Alpha  occ. eigenvalues --   -0.26667  -0.26246  -0.26135  -0.21284  -0.19904
 Alpha  occ. eigenvalues --   -0.15384  -0.15297
 Alpha virt. eigenvalues --    0.27059   0.27690   0.27976   0.29609   0.29731
 Alpha virt. eigenvalues --    0.31612   0.46180   0.47224   0.48873   0.49233
 Alpha virt. eigenvalues --    0.49945   0.50418   0.50509   0.51552   0.52720

 Mulliken charges:
               1
     1  C   -0.076246
     2  C    0.000871
     3  C   -0.064090
     4  C   -0.090736
     5  C    0.089067
     6  C   -0.013464
     7  N   -0.283545
     8  C    0.015413
     9  C    0.129541
    10  C    0.039984
    11  C   -0.114629
    12  C   -0.107947
    13  C    0.041719
    14  N   -0.293546
    15  C   -0.011989
    16  C   -0.095785
    17  C   -0.100305
    18  C   -0.099071
    19  C   -0.016028
    20  C   -0.104030
    21  C   -0.063718
    22  C    0.318301
    23  O   -0.274485
    24  O   -0.256073
    25  C   -0.055195
    26  C   -0.078313
    27  C   -0.109509
    28  C    0.001964
    29  C   -0.073156
    30  C   -0.061465
    31  C   -0.090665
    32  C    0.086377
    33  C   -0.011999
    34  N   -0.286101
    35  C    0.017319
    36  C    0.128063
    37  C    0.039831
    38  C   -0.116639
    39  C   -0.103649
    40  C    0.027452
    41  N   -0.080444
    42  C   -0.008938
    43  C   -0.103747
    44  C   -0.104451
    45  C   -0.106409
    46  C   -0.015780
    47  C   -0.108842
    48  C   -0.068086
    49  C    0.320050
    50  O   -0.279115
    51  O   -0.254503
    52  C   -0.055725
    53  C   -0.080225
    54  O   -0.456781
    55  H    0.062689
    56  H    0.054541
    57  H    0.057380
    58  H    0.043109
    59  H    0.053220
    60  H    0.048201
    61  H    0.047307
    62  H    0.048893
    63  H    0.041178
    64  H    0.061738
    65  H    0.054390
    66  H    0.048482
    67  H    0.046388
    68  H    0.049803
    69  H    0.061208
    70  H    0.054547
    71  H    0.060110
    72  H    0.060954
    73  H    0.046978
    74  H    0.080088
    75  H    0.062052
    76  H    0.072859
    77  H    0.075368
    78  H    0.071011
    79  H    0.054145
    80  H    0.070228
    81  H    0.075387
    82  H    0.056386
    83  H    0.060729
    84  H    0.083803
    85  H    0.055757
    86  H    0.057759
    87  H    0.089581
    88  H    0.052268
    89  H    0.059732
    90  H    0.052027
    91  H    0.055219
    92  H    0.092537
    93  H    0.059626
    94  H    0.065016
    95  H    0.074219
    96  H    0.053027
    97  H    0.058633
    98  H    0.079905
    99  H    0.070347
   100  H    0.089431
   101  H    0.072601
   102  H    0.062517
   103  H    0.055492
   104  H    0.067592
   105  H    0.079002
   106  H    0.075649
   107  H    0.073280
   108  H    0.075779
   109  H    0.073029
   110  H    0.056277
 Sum of Mulliken charges =  -0.00000

 Dipole moment (field-independent basis, Debye):
    X=              3.0854    Y=              0.8463    Z=              3.1504  Tot=              4.4901
 Quadrupole moment (field-independent basis, Debye-Ang):
   XX=           -271.2760   YY=           -299.3079   ZZ=           -295.1137
   XY=             -9.1973   XZ=              8.4994   YZ=             -1.9182

 Summary of Natural Population Analysis:

                                       Natural Population
                Natural  -----------------------------------------------
    Atom  No    Charge         Core      Valence    Rydberg      Total
 -----------------------------------------------------------------------
      C    1   -0.05924      1.99992     4.05932    0.00000     6.05924
      C    2    0.01529      1.99990     3.98481    0.00000     5.98471
      C    3   -0.03633      1.99994     4.03638    0.00000     6.03633
      C    4   -0.08789      1.99993     4.08796    0.00000     6.08789
      C    5    0.11258      1.99985     3.88757    0.00000     5.88742
      C    6   -0.02236      1.99990     4.02246    0.00000     6.02236
      N    7   -0.27246      1.99998     5.27248    0.00000     7.27246
      C    8    0.01575      1.99996     3.98429    0.00000     5.98425
      C    9    0.17327      1.99996     3.82678    0.00000     5.82673
      C   10    0.07164      1.99994     3.92842    0.00000     5.92836
      C   11   -0.08423      1.99994     4.08429    0.00000     6.08423
      C   12   -0.07822      1.99996     4.07825    0.00000     6.07822
      C   13    0.06344      1.99998     3.93659    0.00000     5.93656
      N   14   -0.28311      1.99999     5.28312    0.00000     7.28311
      C   15    0.04236      1.99994     3.95770    0.00000     5.95764
      C   16   -0.05873      1.99996     4.05877    0.00000     6.05873
      C   17   -0.06418      1.99995     4.06423    0.00000     6.06418
      C   18   -0.06525      1.99994     4.06531    0.00000     6.06525
      C   19    0.03706      1.99995     3.96299    0.00000     5.96294
      C   20   -0.06641      1.99992     4.06648    0.00000     6.06641
      C   21   -0.07988      1.99994     4.07994    0.00000     6.07988
      C   22    0.40085      1.99991     3.59924    0.00000     5.59915
      O   23   -0.30851      1.99999     6.30853    0.00000     8.30851
      O   24   -0.26787      1.99999     6.26787    0.00000     8.26787
      C   25    0.03513      1.99984     3.96503    0.00000     5.96487
      C   26   -0.01599      1.99992     4.01606    0.00000     6.01599
      C   27   -0.08648      1.99996     4.08652    0.00000     6.08648
      C   28    0.01648      1.99990     3.98361    0.00000     5.98352
      C   29   -0.05423      1.99993     4.05431    0.00000     6.05423
      C   30   -0.03278      1.99995     4.03284    0.00000     6.03278
      C   31   -0.08813      1.99993     4.08820    0.00000     6.08813
      C   32    0.10973      1.99985     3.89042    0.00000     5.89027
      C   33   -0.02492      1.99990     4.02502    0.00000     6.02492
      N   34   -0.27447      1.99998     5.27449    0.00000     7.27447
      C   35    0.01702      1.99996     3.98302    0.00000     5.98298
      C   36    0.17159      1.99996     3.82845    0.00000     5.82841
      C   37    0.07160      1.99991     3.92849    0.00000     5.92840
      C   38   -0.08866      1.99994     4.08872    0.00000     6.08866
      C   39   -0.07221      1.99996     4.07226    0.00000     6.07221
      C   40    0.04959      1.99998     3.95043    0.00000     5.95041
      N   41    0.03300      1.99999     4.96701    0.00000     6.96700
      C   42    0.04399      1.99990     3.95611    0.00000     5.95601
      C   43   -0.07443      1.99997     4.07446    0.00000     6.07443
      C   44   -0.07068      1.99995     4.07073    0.00000     6.07068
      C   45   -0.08165      1.99995     4.08170    0.00000     6.08165
      C   46    0.03341      1.99992     3.96668    0.00000     5.96659
      C   47   -0.07134      1.99993     4.07142    0.00000     6.07134
      C   48   -0.08599      1.99994     4.08605    0.00000     6.08599
      C   49    0.40281      1.99991     3.59728    0.00000     5.59719
      O   50   -0.31330      1.99998     6.31331    0.00000     8.31330
      O   51   -0.26581      1.99999     6.26582    0.00000     8.26581
      C   52    0.03483      1.99984     3.96533    0.00000     5.96517
      C   53   -0.01775      1.99992     4.01783    0.00000     6.01775
      O   54   -0.50883      2.00000     6.50884    0.00000     8.50883
      H   55    0.03723      0.00000     0.96277    0.00000     0.96277
      H   56    0.02757      0.00000     0.97243    0.00000     0.97243
      H   57    0.03345      0.00000     0.96655    0.00000     0.96655
      H   58    0.01270      0.00000     0.98730    0.00000     0.98730
      H   59    0.03035      0.00000     0.96965    0.00000     0.96965
      H   60    0.02625      0.00000     0.97375    0.00000     0.97375
      H   61    0.02707      0.00000     0.97293    0.00000     0.97293
      H   62    0.02857      0.00000     0.97143    0.00000     0.97143
      H   63    0.01335      0.00000     0.98665    0.00000     0.98665
      H   64    0.03565      0.00000     0.96435    0.00000     0.96435
      H   65    0.03248      0.00000     0.96752    0.00000     0.96752
      H   66    0.02727      0.00000     0.97273    0.00000     0.97273
      H   67    0.02489      0.00000     0.97511    0.00000     0.97511
      H   68    0.02827      0.00000     0.97173    0.00000     0.97173
      H   69    0.03704      0.00000     0.96296    0.00000     0.96296
      H   70    0.03269      0.00000     0.96731    0.00000     0.96731
      H   71    0.03042      0.00000     0.96958    0.00000     0.96958
      H   72    0.03478      0.00000     0.96522    0.00000     0.96522
      H   73    0.02414      0.00000     0.97586    0.00000     0.97586
      H   74    0.05350      0.00000     0.94650    0.00000     0.94650
      H   75    0.03902      0.00000     0.96098    0.00000     0.96098
      H   76    0.04160      0.00000     0.95840    0.00000     0.95840
      H   77    0.04448      0.00000     0.95552    0.00000     0.95552
      H   78    0.03959      0.00000     0.96041    0.00000     0.96041
      H   79    0.02885      0.00000     0.97115    0.00000     0.97115
      H   80    0.04601      0.00000     0.95399    0.00000     0.95399
      H   81    0.05115      0.00000     0.94885    0.00000     0.94885
      H   82    0.03747      0.00000     0.96253    0.00000     0.96253
      H   83    0.04193      0.00000     0.95807    0.00000     0.95807
      H   84    0.05577      0.00000     0.94423    0.00000     0.94423
      H   85    0.02843      0.00000     0.97157    0.00000     0.97157
      H   86    0.03373      0.00000     0.96627    0.00000     0.96627
      H   87    0.05355      0.00000     0.94645    0.00000     0.94645
      H   88    0.03042      0.00000     0.96958    0.00000     0.96958
      H   89    0.03669      0.00000     0.96331    0.00000     0.96331
      H   90    0.03091      0.00000     0.96909    0.00000     0.96909
      H   91    0.03370      0.00000     0.96630    0.00000     0.96630
      H   92    0.06047      0.00000     0.93953    0.00000     0.93953
      H   93    0.02939      0.00000     0.97061    0.00000     0.97061
      H   94    0.04492      0.00000     0.95508    0.00000     0.95508
      H   95    0.05209      0.00000     0.94791    0.00000     0.94791
      H   96    0.03166      0.00000     0.96834    0.00000     0.96834
      H   97    0.03694      0.00000     0.96306    0.00000     0.96306
      H   98    0.05742      0.00000     0.94258    0.00000     0.94258
      H   99    0.04853      0.00000     0.95147    0.00000     0.95147
      H  100    0.05891      0.00000     0.94109    0.00000     0.94109
      H  101    0.04074      0.00000     0.95926    0.00000     0.95926
      H  102    0.03757      0.00000     0.96243    0.00000     0.96243
      H  103    0.03270      0.00000     0.96730    0.00000     0.96730
      H  104    0.04441      0.00000     0.95559    0.00000     0.95559
      H  105    0.04774      0.00000     0.95226    0.00000     0.95226
      H  106    0.04403      0.00000     0.95597    0.00000     0.95597
      H  107    0.04161      0.00000     0.95839    0.00000     0.95839
      H  108    0.05135      0.00000     0.94865    0.00000     0.94865
      H  109    0.04864      0.00000     0.95136    0.00000     0.95136
      H  110    0.03082      0.00000     0.96918    0.00000     0.96918
 =======================================================================
   * Total *   -0.00000    107.99669   286.00331    0.00000   394.00000

 Normal termination of Gaussian 16 at Thu May 30 09:08:47 2024.
