 Gaussian 16, Revision B.01,
 Gaussian 16:  ES64L-G16RevB.01 20-Dec-2017

 ----------------------------------------------
 # nmr=giao hf/sto-3g pop=nbo geom=connectivity
 ----------------------------------------------

 ------------------
 pleiokomenine_C_1a
 ------------------
 Symbolic Z-matrix:
 Charge =  0 Multiplicity = 1

                         Standard orientation:
 ---------------------------------------------------------------------
 Center     Atomic      Atomic             Coordinates (Angstroms)
 Number     Number       Type             X           Y           Z
 ---------------------------------------------------------------------
      1          6           0        1.671060   -1.531951   -1.422336
      2          6           0        1.463765   -2.806820   -1.968140
      3          6           0        2.520853   -3.740445   -1.945611
      4          6           0        3.767308   -3.419748   -1.385672
      5          6           0        3.959910   -2.157975   -0.850200
      6          6           0        2.899626   -1.238489   -0.853390
      7          7           0        5.138553   -1.615289   -0.270237
      8          6           0        3.321157   -0.002508   -0.101843
      9          6           0        4.875801   -0.151849   -0.325482
     10          6           0        2.868031    1.386673   -0.571838
     11          6           0        5.238949    0.391172   -1.775964
     12          6           0        4.891479    1.879092   -1.916586
     13          6           0        4.111854    2.334318   -0.667079
     14          7           0        1.831078    1.784425    0.384276
     15          6           0        1.478116    3.195590    0.356683
     16          6           0        2.664634    4.158104    0.315530
     17          6           0        3.643798    3.790817   -0.799751
     18          6           0        2.732155   -0.140824    1.324065
     19          6           0        2.167908    1.227587    1.683389
     20          6           0        5.115216    2.181865    0.526959
     21          6           0        5.689864    0.741621    0.626909
     22          6           0        5.821893    0.272497    2.065080
     23          8           0        5.270325    0.790097    3.028588
     24          8           0        6.705809   -0.760808    2.154996
     25          6           0        6.859782   -1.286199    3.472969
     26          6           0        6.403479   -2.172034   -0.723451
     27          6           0        0.123108   -3.173990   -2.573862
     28          6           0       -1.040759   -2.949563   -1.630468
     29          6           0       -1.745874   -1.739066   -1.666778
     30          6           0       -1.363116   -3.911602   -0.652342
     31          6           0       -2.347063   -3.662227    0.312423
     32          6           0       -2.988570   -2.434935    0.313432
     33          6           0       -2.706960   -1.499443   -0.697425
     34          7           0       -3.909093   -1.928363    1.274295
     35          6           0       -3.571465   -0.283685   -0.483047
     36          6           0       -3.806854   -0.462263    1.067021
     37          6           0       -2.995978    1.106400   -0.747998
     38          6           0       -2.535939    0.104480    1.839113
     39          6           0       -2.358290    1.608985    1.578491
     40          6           0       -3.319903    2.046600    0.448578
     41          7           0       -3.496192    1.567056   -2.124178
     42          6           0       -4.392449    2.778013   -2.044009
     43          6           0       -3.794565    3.920577   -1.234239
     44          6           0       -3.061750    3.498028    0.040120
     45          6           0       -4.756609   -0.369908   -1.451839
     46          6           0       -4.262773    0.382997   -2.673789
     47          6           0       -4.758815    1.843829    1.041978
     48          6           0       -4.970273    0.400141    1.589833
     49          6           0       -6.380097   -0.120007    1.351002
     50          8           0       -7.194050    0.388397    0.589775
     51          8           0       -6.653142   -1.176058    2.165187
     52          6           0       -7.953894   -1.736553    1.986623
     53          6           0       -3.816323   -2.501074    2.611463
     54          8           0       -2.438016    1.852894   -2.949917
     55          1           0        0.880865   -0.787090   -1.403332
     56          1           0        2.377079   -4.734539   -2.363397
     57          1           0        4.557661   -4.161193   -1.378546
     58          1           0        2.391558    1.329836   -1.560115
     59          1           0        6.308643    0.256161   -1.981713
     60          1           0        4.720041   -0.170810   -2.562447
     61          1           0        5.809527    2.468136   -2.036752
     62          1           0        4.304882    2.035119   -2.830497
     63          1           0        0.867664    3.367186   -0.539576
     64          1           0        0.826877    3.444332    1.203502
     65          1           0        2.296629    5.177496    0.149775
     66          1           0        3.174257    4.167708    1.285162
     67          1           0        3.146211    3.935548   -1.767584
     68          1           0        4.498541    4.477424   -0.782331
     69          1           0        1.890988   -0.849433    1.338236
     70          1           0        3.432797   -0.520627    2.066867
     71          1           0        1.278996    1.126380    2.315451
     72          1           0        2.892396    1.828315    2.235269
     73          1           0        5.959149    2.869840    0.373419
     74          1           0        4.668272    2.511787    1.464952
     75          1           0        6.729267    0.797980    0.268264
     76          1           0        7.298296   -0.533222    4.134939
     77          1           0        5.898719   -1.635425    3.863704
     78          1           0        7.541143   -2.139801    3.419685
     79          1           0        6.478446   -2.188035   -1.816673
     80          1           0        6.527785   -3.193666   -0.348668
     81          1           0        7.244471   -1.586763   -0.338996
     82          1           0       -0.017721   -2.591560   -3.493637
     83          1           0        0.119740   -4.225671   -2.888113
     84          1           0       -1.504418   -0.981355   -2.409495
     85          1           0       -0.815895   -4.851368   -0.616556
     86          1           0       -2.556949   -4.411894    1.066234
     87          1           0       -1.904353    1.054035   -0.872522
     88          1           0       -2.632081   -0.059322    2.920020
     89          1           0       -1.616464   -0.418105    1.546752
     90          1           0       -1.313170    1.812076    1.315278
     91          1           0       -2.558718    2.174956    2.497065
     92          1           0       -4.567162    3.096375   -3.079400
     93          1           0       -5.354107    2.451231   -1.644586
     94          1           0       -3.096022    4.485707   -1.864124
     95          1           0       -4.597400    4.623055   -0.979133
     96          1           0       -1.985170    3.634590   -0.132309
     97          1           0       -3.316844    4.184527    0.856959
     98          1           0       -5.066030   -1.389602   -1.704528
     99          1           0       -5.634463    0.156701   -1.090916
    100          1           0       -5.065432    0.746517   -3.322342
    101          1           0       -3.562352   -0.208549   -3.271655
    102          1           0       -5.530847    2.111229    0.321399
    103          1           0       -4.905058    2.546260    1.874803
    104          1           0       -4.901183    0.473486    2.686308
    105          1           0       -8.041700   -2.604596    2.645841
    106          1           0       -8.090581   -2.071784    0.953597
    107          1           0       -8.723424   -1.010023    2.264874
    108          1           0       -4.428887   -1.935612    3.320124
    109          1           0       -4.193236   -3.529432    2.612482
    110          1           0       -2.787622   -2.502859    2.989742
 ---------------------------------------------------------------------

 SCF Done:  E(RHF) =  -2300.22001164     A.U. after   16 cycles

      1  C    Isotropic =   124.4811   Anisotropy =   153.5111

      2  C    Isotropic =   120.2139   Anisotropy =   156.6147

      3  C    Isotropic =   119.4568   Anisotropy =   148.1388

      4  C    Isotropic =   133.7603   Anisotropy =   141.8385

      5  C    Isotropic =   109.2694   Anisotropy =   126.2873

      6  C    Isotropic =   117.7397   Anisotropy =   139.3460

      7  N    Isotropic =   273.9219   Anisotropy =    81.9839

      8  C    Isotropic =   196.2713   Anisotropy =    13.7274

      9  C    Isotropic =   180.9232   Anisotropy =    45.2774

     10  C    Isotropic =   190.3806   Anisotropy =    30.3045

     11  C    Isotropic =   213.7171   Anisotropy =    19.0484

     12  C    Isotropic =   212.8384   Anisotropy =    21.2136

     13  C    Isotropic =   213.6115   Anisotropy =     7.8472

     14  N    Isotropic =   303.4041   Anisotropy =    54.8837

     15  C    Isotropic =   205.2256   Anisotropy =    32.4765

     16  C    Isotropic =   224.1580   Anisotropy =     9.6799

     17  C    Isotropic =   215.2860   Anisotropy =    19.3757

     18  C    Isotropic =   210.6442   Anisotropy =    35.9010

     19  C    Isotropic =   200.1272   Anisotropy =    40.2984

     20  C    Isotropic =   212.2048   Anisotropy =    21.2978

     21  C    Isotropic =   209.0108   Anisotropy =     9.9036

     22  C    Isotropic =    96.3244   Anisotropy =    98.3379

     23  O    Isotropic =  -133.9694   Anisotropy =   887.2047

     24  O    Isotropic =   283.9983   Anisotropy =   139.9756

     25  C    Isotropic =   197.4199   Anisotropy =    57.3067

     26  C    Isotropic =   209.9001   Anisotropy =    42.0494

     27  C    Isotropic =   206.3199   Anisotropy =    17.4909

     28  C    Isotropic =   119.4405   Anisotropy =   161.5509

     29  C    Isotropic =   122.7848   Anisotropy =   150.0928

     30  C    Isotropic =   118.6232   Anisotropy =   156.7969

     31  C    Isotropic =   133.5243   Anisotropy =   144.5516

     32  C    Isotropic =   107.8576   Anisotropy =   129.2687

     33  C    Isotropic =   120.3888   Anisotropy =   138.0718

     34  N    Isotropic =   272.9966   Anisotropy =    80.0962

     35  C    Isotropic =   197.4069   Anisotropy =    14.0115

     36  C    Isotropic =   180.4481   Anisotropy =    44.4072

     37  C    Isotropic =   175.3260   Anisotropy =    55.7669

     38  C    Isotropic =   213.4262   Anisotropy =    20.4428

     39  C    Isotropic =   212.0089   Anisotropy =    21.3290

     40  C    Isotropic =   210.9524   Anisotropy =     8.5261

     41  N    Isotropic =   226.8665   Anisotropy =    55.9055

     42  C    Isotropic =   196.6367   Anisotropy =    47.1316

     43  C    Isotropic =   221.6109   Anisotropy =    11.5789

     44  C    Isotropic =   217.7048   Anisotropy =    19.9358

     45  C    Isotropic =   214.1172   Anisotropy =    28.8686

     46  C    Isotropic =   186.7746   Anisotropy =    61.9631

     47  C    Isotropic =   212.0111   Anisotropy =    24.4525

     48  C    Isotropic =   208.3255   Anisotropy =    12.3286

     49  C    Isotropic =    95.9568   Anisotropy =    98.2240

     50  O    Isotropic =  -131.2891   Anisotropy =   881.2845

     51  O    Isotropic =   282.9358   Anisotropy =   138.4834

     52  C    Isotropic =   197.2075   Anisotropy =    58.3491

     53  C    Isotropic =   209.4151   Anisotropy =    41.2063

     54  O    Isotropic =    27.6211   Anisotropy =   454.8222

     55  H    Isotropic =    26.0047   Anisotropy =    16.4424

     56  H    Isotropic =    25.6968   Anisotropy =     6.6047

     57  H    Isotropic =    26.5732   Anisotropy =     7.8794

     58  H    Isotropic =    31.3567   Anisotropy =     8.8748

     59  H    Isotropic =    32.1772   Anisotropy =    14.1358

     60  H    Isotropic =    32.8705   Anisotropy =     8.4565

     61  H    Isotropic =    32.3470   Anisotropy =    15.5374

     62  H    Isotropic =    32.4819   Anisotropy =    12.9592

     63  H    Isotropic =    31.5533   Anisotropy =    15.2572

     64  H    Isotropic =    31.8962   Anisotropy =    14.1493

     65  H    Isotropic =    32.5986   Anisotropy =    16.9385

     66  H    Isotropic =    32.5630   Anisotropy =    10.7262

     67  H    Isotropic =    32.5097   Anisotropy =    12.3960

     68  H    Isotropic =    32.4735   Anisotropy =    15.2157

     69  H    Isotropic =    32.9304   Anisotropy =    12.8301

     70  H    Isotropic =    33.1389   Anisotropy =    11.4203

     71  H    Isotropic =    32.1578   Anisotropy =    14.5882

     72  H    Isotropic =    32.0329   Anisotropy =     9.3527

     73  H    Isotropic =    32.2275   Anisotropy =    15.1262

     74  H    Isotropic =    31.4142   Anisotropy =     8.8225

     75  H    Isotropic =    31.2141   Anisotropy =    13.0825

     76  H    Isotropic =    30.6002   Anisotropy =    11.7379

     77  H    Isotropic =    30.6977   Anisotropy =     7.4635

     78  H    Isotropic =    30.5639   Anisotropy =    12.2495

     79  H    Isotropic =    31.8818   Anisotropy =    11.9476

     80  H    Isotropic =    30.7344   Anisotropy =    14.6110

     81  H    Isotropic =    30.9102   Anisotropy =    11.0476

     82  H    Isotropic =    29.9403   Anisotropy =     8.2824

     83  H    Isotropic =    29.8266   Anisotropy =    12.7227

     84  H    Isotropic =    24.9431   Anisotropy =    12.9728

     85  H    Isotropic =    25.8882   Anisotropy =     6.9363

     86  H    Isotropic =    26.6267   Anisotropy =     7.7210

     87  H    Isotropic =    30.1296   Anisotropy =    10.7763

     88  H    Isotropic =    32.1714   Anisotropy =    12.0860

     89  H    Isotropic =    32.8333   Anisotropy =    11.0522

     90  H    Isotropic =    31.9366   Anisotropy =    19.7892

     91  H    Isotropic =    32.1666   Anisotropy =    13.3141

     92  H    Isotropic =    30.7960   Anisotropy =    14.6589

     93  H    Isotropic =    31.7091   Anisotropy =     8.2381

     94  H    Isotropic =    31.1644   Anisotropy =    15.2659

     95  H    Isotropic =    32.1489   Anisotropy =    16.5241

     96  H    Isotropic =    31.7567   Anisotropy =    15.7781

     97  H    Isotropic =    32.2435   Anisotropy =    13.7999

     98  H    Isotropic =    32.7847   Anisotropy =    12.7300

     99  H    Isotropic =    32.5227   Anisotropy =    11.0024

    100  H    Isotropic =    31.1273   Anisotropy =    14.0154

    101  H    Isotropic =    30.2766   Anisotropy =    11.0159

    102  H    Isotropic =    31.4715   Anisotropy =    10.3156

    103  H    Isotropic =    32.0329   Anisotropy =    14.4034

    104  H    Isotropic =    31.1633   Anisotropy =    11.8084

    105  H    Isotropic =    30.4923   Anisotropy =    12.0027

    106  H    Isotropic =    30.5895   Anisotropy =     8.2279

    107  H    Isotropic =    30.5384   Anisotropy =    11.8790

    108  H    Isotropic =    30.9030   Anisotropy =    10.7806

    109  H    Isotropic =    30.7516   Anisotropy =    14.7160

    110  H    Isotropic =    31.9728   Anisotropy =    10.3466

 The electronic state is 1-A.
 Alpha  occ. eigenvalues --  -20.31122 -20.30371 -20.25073 -20.24311 -19.91290
 Alpha  occ. eigenvalues --  -15.47890 -15.33914 -15.33115 -15.30101 -11.17102
 Alpha  occ. eigenvalues --  -11.16234 -11.10905 -11.10350 -11.10045 -11.09015
 Alpha  occ. eigenvalues --  -11.08983 -11.08435 -11.08148 -11.08036 -11.07570
 Alpha  occ. eigenvalues --  -11.07048 -11.06885 -11.06875 -11.06544 -11.06426
 Alpha  occ. eigenvalues --  -11.06052 -11.05869 -11.05775 -11.05393 -11.05315
 Alpha  occ. eigenvalues --  -11.05225 -11.05164 -11.05053 -11.04867 -11.04673
 Alpha  occ. eigenvalues --  -11.04418 -11.04243 -11.04008 -11.03983 -11.03685
 Alpha  occ. eigenvalues --  -11.03510 -11.03478 -11.03446 -11.03357 -11.01915
 Alpha  occ. eigenvalues --  -11.01836 -11.01791 -11.01692 -11.01604 -11.01451
 Alpha  occ. eigenvalues --  -11.01240 -11.01114 -11.00930 -11.00823  -1.38336
 Alpha  occ. eigenvalues --   -1.37584  -1.28159  -1.27725  -1.27381  -1.21296
 Alpha  occ. eigenvalues --   -1.20979  -1.18420  -1.11638  -1.09250  -1.08772
 Alpha  occ. eigenvalues --   -1.07324  -1.06081  -1.04466  -1.03328  -1.00618
 Alpha  occ. eigenvalues --   -1.00063  -0.98731  -0.98141  -0.97563  -0.96543
 Alpha  occ. eigenvalues --   -0.96371  -0.94089  -0.94037  -0.93677  -0.92299
 Alpha  occ. eigenvalues --   -0.92059  -0.91354  -0.91241  -0.89290  -0.87810
 Alpha  occ. eigenvalues --   -0.86477  -0.84797  -0.82727  -0.82135  -0.81535
 Alpha  occ. eigenvalues --   -0.80429  -0.79191  -0.78835  -0.78047  -0.77248
 Alpha  occ. eigenvalues --   -0.76841  -0.74553  -0.73693  -0.72820  -0.71919
 Alpha  occ. eigenvalues --   -0.70909  -0.69913  -0.69194  -0.69039  -0.66326
 Alpha  occ. eigenvalues --   -0.65572  -0.65130  -0.64562  -0.64298  -0.63506
 Alpha  occ. eigenvalues --   -0.63132  -0.61847  -0.61649  -0.61505  -0.60824
 Alpha  occ. eigenvalues --   -0.60531  -0.60316  -0.59342  -0.59237  -0.58480
 Alpha  occ. eigenvalues --   -0.58227  -0.58155  -0.57903  -0.57710  -0.57311
 Alpha  occ. eigenvalues --   -0.57047  -0.56609  -0.56420  -0.56210  -0.55451
 Alpha  occ. eigenvalues --   -0.55031  -0.54950  -0.54500  -0.54331  -0.54229
 Alpha  occ. eigenvalues --   -0.53453  -0.53366  -0.52985  -0.52540  -0.51946
 Alpha  occ. eigenvalues --   -0.51436  -0.51349  -0.51024  -0.50531  -0.50426
 Alpha  occ. eigenvalues --   -0.50304  -0.49671  -0.49452  -0.49012  -0.48906
 Alpha  occ. eigenvalues --   -0.48731  -0.48046  -0.47886  -0.47531  -0.47391
 Alpha  occ. eigenvalues --   -0.46742  -0.46496  -0.46020  -0.45599  -0.45329
 Alpha  occ. eigenvalues --   -0.45211  -0.44491  -0.44406  -0.44298  -0.44004
 Alpha  occ. eigenvalues --   -0.43979  -0.43387  -0.43122  -0.42422  -0.42280
 Alpha  occ. eigenvalues --   -0.42015  -0.41811  -0.41713  -0.41288  -0.41057
 Alpha  occ. eigenvalues --   -0.40764  -0.40114  -0.39031  -0.38759  -0.38000
 Alpha  occ. eigenvalues --   -0.37450  -0.36934  -0.36063  -0.35712  -0.34568
 Alpha  occ. eigenvalues --   -0.33850  -0.33710  -0.33068  -0.32391  -0.31694
 Alpha  occ. eigenvalues --   -0.27138  -0.26617  -0.25631  -0.21337  -0.20248
 Alpha  occ. eigenvalues --   -0.14936  -0.14673
 Alpha virt. eigenvalues --    0.26913   0.27278   0.27956   0.29380   0.29983
 Alpha virt. eigenvalues --    0.30733   0.46643   0.47037   0.48718   0.48775
 Alpha virt. eigenvalues --    0.49466   0.50032   0.50734   0.51116   0.52615

 Mulliken charges:
               1
     1  C   -0.074028
     2  C    0.000384
     3  C   -0.062686
     4  C   -0.090531
     5  C    0.088238
     6  C   -0.012706
     7  N   -0.286547
     8  C    0.018003
     9  C    0.127791
    10  C    0.040636
    11  C   -0.114854
    12  C   -0.105595
    13  C    0.028127
    14  N   -0.292112
    15  C   -0.015751
    16  C   -0.107868
    17  C   -0.102125
    18  C   -0.104861
    19  C   -0.019338
    20  C   -0.110521
    21  C   -0.066444
    22  C    0.319661
    23  O   -0.277745
    24  O   -0.255262
    25  C   -0.055722
    26  C   -0.078938
    27  C   -0.109611
    28  C    0.001889
    29  C   -0.074535
    30  C   -0.060032
    31  C   -0.089803
    32  C    0.089703
    33  C   -0.019060
    34  N   -0.285166
    35  C    0.014442
    36  C    0.128190
    37  C    0.033473
    38  C   -0.115769
    39  C   -0.105747
    40  C    0.032703
    41  N   -0.074002
    42  C   -0.008144
    43  C   -0.101565
    44  C   -0.101960
    45  C   -0.120450
    46  C   -0.012985
    47  C   -0.111389
    48  C   -0.066089
    49  C    0.321124
    50  O   -0.279279
    51  O   -0.254537
    52  C   -0.055273
    53  C   -0.079834
    54  O   -0.456168
    55  H    0.069777
    56  H    0.054561
    57  H    0.056975
    58  H    0.060864
    59  H    0.050085
    60  H    0.055443
    61  H    0.047641
    62  H    0.052355
    63  H    0.059040
    64  H    0.057683
    65  H    0.053503
    66  H    0.049245
    67  H    0.052674
    68  H    0.050611
    69  H    0.062498
    70  H    0.062696
    71  H    0.053722
    72  H    0.051252
    73  H    0.050825
    74  H    0.067129
    75  H    0.064561
    76  H    0.071910
    77  H    0.074344
    78  H    0.076933
    79  H    0.055397
    80  H    0.071200
    81  H    0.075674
    82  H    0.062285
    83  H    0.057227
    84  H    0.076008
    85  H    0.058617
    86  H    0.059299
    87  H    0.095549
    88  H    0.052262
    89  H    0.059524
    90  H    0.063523
    91  H    0.049774
    92  H    0.086720
    93  H    0.060313
    94  H    0.075493
    95  H    0.058631
    96  H    0.065377
    97  H    0.054043
    98  H    0.071543
    99  H    0.069980
   100  H    0.073920
   101  H    0.092753
   102  H    0.064806
   103  H    0.055373
   104  H    0.066680
   105  H    0.078394
   106  H    0.075698
   107  H    0.072960
   108  H    0.076381
   109  H    0.072241
   110  H    0.056697
 Sum of Mulliken charges =  -0.00000

 Dipole moment (field-independent basis, Debye):
    X=             -0.4093    Y=             -0.3725    Z=              3.4131  Tot=              3.4577
 Quadrupole moment (field-independent basis, Debye-Ang):
   XX=           -269.2325   YY=           -294.3729   ZZ=           -306.9916
   XY=              0.5471   XZ=            -11.2724   YZ=              2.7592

 Summary of Natural Population Analysis:

                                       Natural Population
                Natural  -----------------------------------------------
    Atom  No    Charge         Core      Valence    Rydberg      Total
 -----------------------------------------------------------------------
      C    1   -0.05544      1.99993     4.05551    0.00000     6.05544
      C    2    0.01480      1.99990     3.98530    0.00000     5.98520
      C    3   -0.03459      1.99994     4.03464    0.00000     6.03459
      C    4   -0.08744      1.99993     4.08751    0.00000     6.08744
      C    5    0.11135      1.99985     3.88880    0.00000     5.88865
      C    6   -0.02439      1.99990     4.02449    0.00000     6.02439
      N    7   -0.27489      1.99998     5.27491    0.00000     7.27489
      C    8    0.01954      1.99996     3.98050    0.00000     5.98046
      C    9    0.17135      1.99996     3.82869    0.00000     5.82865
      C   10    0.07412      1.99993     3.92595    0.00000     5.92588
      C   11   -0.08505      1.99994     4.08511    0.00000     6.08505
      C   12   -0.07376      1.99996     4.07380    0.00000     6.07376
      C   13    0.05043      1.99998     3.94959    0.00000     5.94957
      N   14   -0.28050      1.99999     5.28051    0.00000     7.28050
      C   15    0.03779      1.99993     3.96228    0.00000     5.96221
      C   16   -0.07403      1.99997     4.07407    0.00000     6.07403
      C   17   -0.06846      1.99996     4.06850    0.00000     6.06846
      C   18   -0.07455      1.99995     4.07460    0.00000     6.07455
      C   19    0.03393      1.99994     3.96613    0.00000     5.96607
      C   20   -0.07366      1.99992     4.07373    0.00000     6.07366
      C   21   -0.08436      1.99994     4.08441    0.00000     6.08436
      C   22    0.40320      1.99991     3.59689    0.00000     5.59680
      O   23   -0.31198      1.99999     6.31199    0.00000     8.31198
      O   24   -0.26689      1.99999     6.26690    0.00000     8.26689
      C   25    0.03465      1.99984     3.96551    0.00000     5.96535
      C   26   -0.01638      1.99992     4.01646    0.00000     6.01638
      C   27   -0.08632      1.99995     4.08637    0.00000     6.08632
      C   28    0.01521      1.99990     3.98489    0.00000     5.98479
      C   29   -0.05476      1.99992     4.05484    0.00000     6.05476
      C   30   -0.03073      1.99994     4.03078    0.00000     6.03073
      C   31   -0.08741      1.99993     4.08748    0.00000     6.08741
      C   32    0.11422      1.99985     3.88593    0.00000     5.88578
      C   33   -0.03233      1.99990     4.03243    0.00000     6.03233
      N   34   -0.27374      1.99998     5.27376    0.00000     7.27374
      C   35    0.01270      1.99996     3.98735    0.00000     5.98730
      C   36    0.17163      1.99996     3.82842    0.00000     5.82837
      C   37    0.06461      1.99990     3.93550    0.00000     5.93539
      C   38   -0.08605      1.99994     4.08611    0.00000     6.08605
      C   39   -0.07314      1.99995     4.07319    0.00000     6.07314
      C   40    0.05526      1.99998     3.94477    0.00000     5.94474
      N   41    0.04027      1.99999     4.95974    0.00000     6.95973
      C   42    0.04550      1.99990     3.95460    0.00000     5.95450
      C   43   -0.07178      1.99996     4.07182    0.00000     6.07178
      C   44   -0.07087      1.99995     4.07091    0.00000     6.07087
      C   45   -0.09491      1.99995     4.09496    0.00000     6.09491
      C   46    0.03834      1.99992     3.96174    0.00000     5.96166
      C   47   -0.07389      1.99992     4.07397    0.00000     6.07389
      C   48   -0.08323      1.99994     4.08329    0.00000     6.08323
      C   49    0.40454      1.99991     3.59555    0.00000     5.59546
      O   50   -0.31394      1.99998     6.31396    0.00000     8.31394
      O   51   -0.26614      1.99999     6.26614    0.00000     8.26614
      C   52    0.03529      1.99984     3.96487    0.00000     5.96471
      C   53   -0.01703      1.99992     4.01711    0.00000     6.01703
      O   54   -0.50983      2.00000     6.50983    0.00000     8.50983
      H   55    0.04303      0.00000     0.95697    0.00000     0.95697
      H   56    0.02743      0.00000     0.97257    0.00000     0.97257
      H   57    0.03293      0.00000     0.96707    0.00000     0.96707
      H   58    0.02927      0.00000     0.97073    0.00000     0.97073
      H   59    0.02801      0.00000     0.97199    0.00000     0.97199
      H   60    0.03242      0.00000     0.96758    0.00000     0.96758
      H   61    0.02672      0.00000     0.97328    0.00000     0.97328
      H   62    0.03111      0.00000     0.96889    0.00000     0.96889
      H   63    0.03156      0.00000     0.96844    0.00000     0.96844
      H   64    0.03227      0.00000     0.96773    0.00000     0.96773
      H   65    0.03364      0.00000     0.96636    0.00000     0.96636
      H   66    0.02873      0.00000     0.97127    0.00000     0.97127
      H   67    0.03164      0.00000     0.96836    0.00000     0.96836
      H   68    0.02979      0.00000     0.97021    0.00000     0.97021
      H   69    0.04124      0.00000     0.95876    0.00000     0.95876
      H   70    0.04010      0.00000     0.95990    0.00000     0.95990
      H   71    0.02790      0.00000     0.97210    0.00000     0.97210
      H   72    0.02226      0.00000     0.97774    0.00000     0.97774
      H   73    0.02869      0.00000     0.97131    0.00000     0.97131
      H   74    0.04192      0.00000     0.95808    0.00000     0.95808
      H   75    0.04174      0.00000     0.95826    0.00000     0.95826
      H   76    0.04040      0.00000     0.95960    0.00000     0.95960
      H   77    0.04291      0.00000     0.95709    0.00000     0.95709
      H   78    0.04591      0.00000     0.95409    0.00000     0.95409
      H   79    0.03000      0.00000     0.97000    0.00000     0.97000
      H   80    0.04691      0.00000     0.95309    0.00000     0.95309
      H   81    0.05136      0.00000     0.94864    0.00000     0.94864
      H   82    0.04331      0.00000     0.95669    0.00000     0.95669
      H   83    0.03822      0.00000     0.96178    0.00000     0.96178
      H   84    0.04911      0.00000     0.95089    0.00000     0.95089
      H   85    0.03110      0.00000     0.96890    0.00000     0.96890
      H   86    0.03511      0.00000     0.96489    0.00000     0.96489
      H   87    0.05898      0.00000     0.94102    0.00000     0.94102
      H   88    0.02993      0.00000     0.97007    0.00000     0.97007
      H   89    0.03595      0.00000     0.96405    0.00000     0.96405
      H   90    0.04076      0.00000     0.95924    0.00000     0.95924
      H   91    0.02840      0.00000     0.97160    0.00000     0.97160
      H   92    0.05538      0.00000     0.94462    0.00000     0.94462
      H   93    0.02900      0.00000     0.97100    0.00000     0.97100
      H   94    0.05320      0.00000     0.94680    0.00000     0.94680
      H   95    0.03844      0.00000     0.96156    0.00000     0.96156
      H   96    0.04359      0.00000     0.95641    0.00000     0.95641
      H   97    0.03341      0.00000     0.96659    0.00000     0.96659
      H   98    0.05115      0.00000     0.94885    0.00000     0.94885
      H   99    0.04628      0.00000     0.95372    0.00000     0.95372
      H  100    0.04393      0.00000     0.95607    0.00000     0.95607
      H  101    0.05996      0.00000     0.94004    0.00000     0.94004
      H  102    0.03924      0.00000     0.96076    0.00000     0.96076
      H  103    0.03273      0.00000     0.96727    0.00000     0.96727
      H  104    0.04341      0.00000     0.95659    0.00000     0.95659
      H  105    0.04718      0.00000     0.95282    0.00000     0.95282
      H  106    0.04408      0.00000     0.95592    0.00000     0.95592
      H  107    0.04129      0.00000     0.95871    0.00000     0.95871
      H  108    0.05183      0.00000     0.94817    0.00000     0.94817
      H  109    0.04777      0.00000     0.95223    0.00000     0.95223
      H  110    0.03115      0.00000     0.96885    0.00000     0.96885
 =======================================================================
   * Total *   -0.00000    107.99666   286.00334    0.00000   394.00000

 Normal termination of Gaussian 16 at Thu May 30 08:53:10 2024.
