 Gaussian 16, Revision B.01,
 Gaussian 16:  ES64L-G16RevB.01 20-Dec-2017

 ----------------------------------------------
 # nmr=giao hf/sto-3g pop=nbo geom=connectivity
 ----------------------------------------------

 ------------------
 pleiokomenine_C_1a
 ------------------
 Symbolic Z-matrix:
 Charge =  0 Multiplicity = 1

                         Standard orientation:
 ---------------------------------------------------------------------
 Center     Atomic      Atomic             Coordinates (Angstroms)
 Number     Number       Type             X           Y           Z
 ---------------------------------------------------------------------
      1          6           0        2.203382    0.225937    1.880377
      2          6           0        1.184818   -0.580641    2.406155
      3          6           0        1.182651   -1.965701    2.133356
      4          6           0        2.177413   -2.555122    1.343264
      5          6           0        3.167570   -1.750928    0.808647
      6          6           0        3.180088   -0.370473    1.097633
      7          7           0        4.229394   -2.126366   -0.064949
      8          6           0        4.424511    0.222251    0.483535
      9          6           0        4.593772   -0.822914   -0.678353
     10          6           0        4.434145    1.630159   -0.113040
     11          6           0        3.536589   -0.499329   -1.831716
     12          6           0        3.706812    0.919427   -2.377253
     13          6           0        4.826397    1.630020   -1.608597
     14          7           0        5.519992    2.309367    0.593562
     15          6           0        5.536861    3.734379    0.357933
     16          6           0        5.859384    3.943528   -1.131586
     17          6           0        4.978496    3.098807   -2.071442
     18          6           0        5.447594    0.308561    1.647564
     19          6           0        5.532795    1.807173    1.946455
     20          6           0        6.134930    0.792392   -1.832517
     21          6           0        5.956977   -0.698380   -1.392172
     22          6           0        7.176980   -1.236092   -0.661599
     23          8           0        8.151328   -0.572956   -0.328144
     24          8           0        7.095282   -2.587879   -0.511736
     25          6           0        8.192946   -3.168190    0.191592
     26          6           0        4.015616   -3.310530   -0.881753
     27          6           0        0.084535    0.030180    3.245115
     28          6           0       -1.013323    0.661009    2.419506
     29          6           0       -1.999301   -0.144841    1.834994
     30          6           0       -1.053481    2.056099    2.223170
     31          6           0       -2.057453    2.650923    1.449034
     32          6           0       -3.014359    1.844805    0.855653
     33          6           0       -2.987196    0.455939    1.069418
     34          7           0       -4.076695    2.236041   -0.001848
     35          6           0       -4.189471   -0.167316    0.402778
     36          6           0       -4.420642    0.964248   -0.680362
     37          6           0       -4.077469   -1.525867   -0.310875
     38          6           0       -3.414697    0.723430   -1.890480
     39          6           0       -3.678538   -0.626206   -2.573211
     40          6           0       -4.710236   -1.415287   -1.740008
     41          7           0       -4.731851   -2.528283    0.624250
     42          6           0       -5.153452   -3.807393   -0.050115
     43          6           0       -5.817515   -3.649605   -1.404008
     44          6           0       -4.952633   -2.806471   -2.333506
     45          6           0       -5.248191   -0.388431    1.514314
     46          6           0       -5.844503   -1.769370    1.275363
     47          6           0       -6.023708   -0.563219   -1.811133
     48          6           0       -5.813329    0.892421   -1.325266
     49          6           0       -6.983746    1.389997   -0.495734
     50          8           0       -7.820586    0.665695    0.030065
     51          8           0       -7.020624    2.750119   -0.474119
     52          6           0       -8.071924    3.295811    0.322766
     53          6           0       -3.889555    3.469568   -0.751315
     54          8           0       -3.822830   -2.898419    1.606577
     55          1           0        2.233371    1.289624    2.092071
     56          1           0        0.390688   -2.596043    2.535422
     57          1           0        2.148279   -3.621555    1.153538
     58          1           0        3.471930    2.134611    0.051012
     59          1           0        3.650573   -1.214510   -2.657384
     60          1           0        2.499937   -0.622719   -1.494650
     61          1           0        3.934487    0.882622   -3.449758
     62          1           0        2.759105    1.464068   -2.280724
     63          1           0        4.579478    4.200940    0.618236
     64          1           0        6.316083    4.219610    0.956417
     65          1           0        5.752329    5.004495   -1.385218
     66          1           0        6.911519    3.686252   -1.309532
     67          1           0        3.985933    3.567513   -2.109521
     68          1           0        5.381367    3.141565   -3.090354
     69          1           0        6.435083   -0.050086    1.361616
     70          1           0        5.164256   -0.245072    2.550713
     71          1           0        4.673071    2.154853    2.530004
     72          1           0        6.455827    2.053056    2.479551
     73          1           0        6.395617    0.809347   -2.899615
     74          1           0        6.980968    1.263764   -1.322053
     75          1           0        5.931206   -1.290909   -2.319619
     76          1           0        7.993261   -4.237026    0.307828
     77          1           0        9.118269   -3.048542   -0.380215
     78          1           0        8.290877   -2.725062    1.187721
     79          1           0        3.062354   -3.274052   -1.420925
     80          1           0        4.031885   -4.211660   -0.259431
     81          1           0        4.813845   -3.419849   -1.622368
     82          1           0        0.520892    0.774179    3.924766
     83          1           0       -0.352076   -0.729539    3.907058
     84          1           0       -2.004107   -1.220291    1.995523
     85          1           0       -0.296431    2.690304    2.678815
     86          1           0       -2.066382    3.726883    1.321059
     87          1           0       -3.037189   -1.870436   -0.394053
     88          1           0       -3.510182    1.522588   -2.636893
     89          1           0       -2.368348    0.757274   -1.562128
     90          1           0       -2.736901   -1.180791   -2.671165
     91          1           0       -4.045829   -0.462954   -3.594384
     92          1           0       -4.231921   -4.393094   -0.164641
     93          1           0       -5.803556   -4.330260    0.660222
     94          1           0       -5.963159   -4.641022   -1.848849
     95          1           0       -6.815797   -3.216099   -1.293373
     96          1           0       -3.994976   -3.317838   -2.496470
     97          1           0       -5.435143   -2.730137   -3.315357
     98          1           0       -4.775622   -0.414507    2.506822
     99          1           0       -6.000277    0.394860    1.593507
    100          1           0       -6.700912   -1.764978    0.604557
    101          1           0       -6.113833   -2.286294    2.202249
    102          1           0       -6.845036   -1.052463   -1.288686
    103          1           0       -6.362596   -0.520174   -2.856656
    104          1           0       -5.830807    1.526850   -2.224713
    105          1           0       -7.990370    2.949184    1.357865
    106          1           0       -9.046357    3.032401   -0.099809
    107          1           0       -7.972864    4.384694    0.314255
    108          1           0       -4.687062    3.600286   -1.489030
    109          1           0       -3.931220    4.334474   -0.080748
    110          1           0       -2.933228    3.485291   -1.286266
 ---------------------------------------------------------------------

 SCF Done:  E(RHF) =  -2300.22220969     A.U. after   16 cycles

      1  C    Isotropic =   126.7332   Anisotropy =   146.6874

      2  C    Isotropic =   120.3838   Anisotropy =   158.5598

      3  C    Isotropic =   118.7614   Anisotropy =   153.2893

      4  C    Isotropic =   133.1838   Anisotropy =   144.5016

      5  C    Isotropic =   108.0814   Anisotropy =   128.3053

      6  C    Isotropic =   117.9964   Anisotropy =   141.6831

      7  N    Isotropic =   272.5982   Anisotropy =    82.5207

      8  C    Isotropic =   198.3285   Anisotropy =    12.9435

      9  C    Isotropic =   180.2136   Anisotropy =    42.9404

     10  C    Isotropic =   189.5193   Anisotropy =    32.6776

     11  C    Isotropic =   212.9914   Anisotropy =    20.2720

     12  C    Isotropic =   214.6693   Anisotropy =    19.4736

     13  C    Isotropic =   211.0635   Anisotropy =     7.3245

     14  N    Isotropic =   300.8591   Anisotropy =    59.9532

     15  C    Isotropic =   202.4658   Anisotropy =    39.2898

     16  C    Isotropic =   219.5228   Anisotropy =     8.9645

     17  C    Isotropic =   214.0842   Anisotropy =    22.9847

     18  C    Isotropic =   209.3888   Anisotropy =    31.8608

     19  C    Isotropic =   200.0603   Anisotropy =    40.0768

     20  C    Isotropic =   212.3397   Anisotropy =    20.9890

     21  C    Isotropic =   208.2764   Anisotropy =    11.9003

     22  C    Isotropic =    97.0199   Anisotropy =    99.3541

     23  O    Isotropic =  -136.5590   Anisotropy =   887.9578

     24  O    Isotropic =   284.6069   Anisotropy =   138.1405

     25  C    Isotropic =   197.3647   Anisotropy =    57.7873

     26  C    Isotropic =   209.8234   Anisotropy =    40.9056

     27  C    Isotropic =   206.2827   Anisotropy =    15.7359

     28  C    Isotropic =   120.0850   Anisotropy =   158.8921

     29  C    Isotropic =   121.3913   Anisotropy =   156.2329

     30  C    Isotropic =   119.3924   Anisotropy =   152.0452

     31  C    Isotropic =   134.5151   Anisotropy =   141.9529

     32  C    Isotropic =   109.3016   Anisotropy =   126.3017

     33  C    Isotropic =   119.5324   Anisotropy =   135.8355

     34  N    Isotropic =   275.2767   Anisotropy =    81.4939

     35  C    Isotropic =   195.5353   Anisotropy =    13.4939

     36  C    Isotropic =   181.4461   Anisotropy =    44.2018

     37  C    Isotropic =   180.2315   Anisotropy =    46.0681

     38  C    Isotropic =   213.9601   Anisotropy =    18.9290

     39  C    Isotropic =   212.6754   Anisotropy =    21.6135

     40  C    Isotropic =   212.1570   Anisotropy =     9.2190

     41  N    Isotropic =   234.6667   Anisotropy =    25.2639

     42  C    Isotropic =   194.9847   Anisotropy =    49.3624

     43  C    Isotropic =   223.0152   Anisotropy =    10.4367

     44  C    Isotropic =   215.8034   Anisotropy =    19.2325

     45  C    Isotropic =   211.0499   Anisotropy =    38.4248

     46  C    Isotropic =   191.7905   Anisotropy =    52.5792

     47  C    Isotropic =   212.5904   Anisotropy =    21.9866

     48  C    Isotropic =   209.5428   Anisotropy =    10.6404

     49  C    Isotropic =    96.1215   Anisotropy =    99.5190

     50  O    Isotropic =  -133.9873   Anisotropy =   887.0191

     51  O    Isotropic =   283.3500   Anisotropy =   138.8225

     52  C    Isotropic =   197.1838   Anisotropy =    58.0485

     53  C    Isotropic =   209.9535   Anisotropy =    40.8228

     54  O    Isotropic =     0.5176   Anisotropy =   521.9056

     55  H    Isotropic =    26.2738   Anisotropy =    14.4496

     56  H    Isotropic =    25.3334   Anisotropy =     5.6958

     57  H    Isotropic =    26.4267   Anisotropy =     7.9983

     58  H    Isotropic =    32.3136   Anisotropy =     9.8305

     59  H    Isotropic =    32.2640   Anisotropy =    12.3687

     60  H    Isotropic =    33.3144   Anisotropy =    11.3334

     61  H    Isotropic =    32.4406   Anisotropy =    14.5843

     62  H    Isotropic =    32.9814   Anisotropy =    13.5656

     63  H    Isotropic =    32.5041   Anisotropy =    11.7754

     64  H    Isotropic =    31.7225   Anisotropy =    15.2691

     65  H    Isotropic =    32.4574   Anisotropy =    17.2636

     66  H    Isotropic =    31.8736   Anisotropy =    13.3684

     67  H    Isotropic =    32.6990   Anisotropy =    12.2088

     68  H    Isotropic =    32.3410   Anisotropy =    14.6321

     69  H    Isotropic =    32.4452   Anisotropy =    12.3388

     70  H    Isotropic =    32.9744   Anisotropy =    10.5698

     71  H    Isotropic =    32.2363   Anisotropy =    11.6387

     72  H    Isotropic =    31.9233   Anisotropy =    16.0552

     73  H    Isotropic =    32.0740   Anisotropy =    15.0398

     74  H    Isotropic =    30.3599   Anisotropy =    10.9714

     75  H    Isotropic =    31.2800   Anisotropy =    12.1438

     76  H    Isotropic =    30.4942   Anisotropy =    11.6907

     77  H    Isotropic =    30.4979   Anisotropy =    12.1531

     78  H    Isotropic =    30.5649   Anisotropy =     8.0397

     79  H    Isotropic =    31.9255   Anisotropy =    11.1373

     80  H    Isotropic =    30.6476   Anisotropy =    14.1271

     81  H    Isotropic =    30.8741   Anisotropy =    10.8070

     82  H    Isotropic =    30.0094   Anisotropy =    10.1326

     83  H    Isotropic =    29.7693   Anisotropy =     9.9516

     84  H    Isotropic =    24.7883   Anisotropy =    15.7429

     85  H    Isotropic =    25.6639   Anisotropy =     5.6650

     86  H    Isotropic =    26.6554   Anisotropy =     8.0551

     87  H    Isotropic =    30.9165   Anisotropy =     9.8009

     88  H    Isotropic =    32.2810   Anisotropy =    12.6677

     89  H    Isotropic =    33.1341   Anisotropy =    11.5401

     90  H    Isotropic =    32.6791   Anisotropy =    13.6387

     91  H    Isotropic =    32.3872   Anisotropy =    14.4651

     92  H    Isotropic =    30.7449   Anisotropy =    13.0004

     93  H    Isotropic =    30.8320   Anisotropy =    14.0881

     94  H    Isotropic =    32.3221   Anisotropy =    18.2275

     95  H    Isotropic =    32.5600   Anisotropy =    10.7700

     96  H    Isotropic =    32.5655   Anisotropy =    12.9467

     97  H    Isotropic =    32.4733   Anisotropy =    14.4768

     98  H    Isotropic =    31.6574   Anisotropy =    11.0908

     99  H    Isotropic =    32.8658   Anisotropy =    11.2863

    100  H    Isotropic =    31.4750   Anisotropy =     8.4819

    101  H    Isotropic =    30.9372   Anisotropy =    15.1292

    102  H    Isotropic =    31.6192   Anisotropy =    10.1054

    103  H    Isotropic =    32.2329   Anisotropy =    14.5490

    104  H    Isotropic =    31.2078   Anisotropy =    12.1384

    105  H    Isotropic =    30.6174   Anisotropy =     7.8401

    106  H    Isotropic =    30.5597   Anisotropy =    11.8045

    107  H    Isotropic =    30.5010   Anisotropy =    11.9977

    108  H    Isotropic =    30.9714   Anisotropy =    10.6649

    109  H    Isotropic =    30.7277   Anisotropy =    14.1539

    110  H    Isotropic =    31.9811   Anisotropy =    11.2875

 The electronic state is 1-A.
 Alpha  occ. eigenvalues --  -20.31330 -20.29733 -20.25211 -20.23761 -19.91703
 Alpha  occ. eigenvalues --  -15.47802 -15.33831 -15.32896 -15.29753 -11.17241
 Alpha  occ. eigenvalues --  -11.15633 -11.11029 -11.10185 -11.09863 -11.09327
 Alpha  occ. eigenvalues --  -11.09142 -11.08808 -11.08753 -11.08244 -11.07323
 Alpha  occ. eigenvalues --  -11.07313 -11.07222 -11.06933 -11.06642 -11.06414
 Alpha  occ. eigenvalues --  -11.06240 -11.06212 -11.05838 -11.05707 -11.05647
 Alpha  occ. eigenvalues --  -11.05439 -11.05107 -11.05103 -11.05004 -11.04899
 Alpha  occ. eigenvalues --  -11.04839 -11.04651 -11.03621 -11.03610 -11.03527
 Alpha  occ. eigenvalues --  -11.03368 -11.03353 -11.03274 -11.03248 -11.01467
 Alpha  occ. eigenvalues --  -11.01442 -11.01431 -11.01310 -11.01252 -11.01040
 Alpha  occ. eigenvalues --  -11.01017 -11.01008 -11.00954 -11.00707  -1.38509
 Alpha  occ. eigenvalues --   -1.37015  -1.28383  -1.28181  -1.26699  -1.21300
 Alpha  occ. eigenvalues --   -1.21036  -1.18804  -1.11992  -1.08861  -1.08289
 Alpha  occ. eigenvalues --   -1.07054  -1.06339  -1.04404  -1.03346  -1.00724
 Alpha  occ. eigenvalues --   -0.99988  -0.98723  -0.98106  -0.97525  -0.96633
 Alpha  occ. eigenvalues --   -0.96024  -0.94676  -0.93844  -0.93642  -0.92308
 Alpha  occ. eigenvalues --   -0.91829  -0.91172  -0.90784  -0.89345  -0.87858
 Alpha  occ. eigenvalues --   -0.86296  -0.84613  -0.83014  -0.82474  -0.80961
 Alpha  occ. eigenvalues --   -0.80764  -0.78981  -0.78862  -0.78165  -0.76616
 Alpha  occ. eigenvalues --   -0.76511  -0.74513  -0.73533  -0.72521  -0.72312
 Alpha  occ. eigenvalues --   -0.71586  -0.70422  -0.69609  -0.68910  -0.66989
 Alpha  occ. eigenvalues --   -0.65899  -0.64798  -0.64116  -0.63994  -0.63046
 Alpha  occ. eigenvalues --   -0.62746  -0.61914  -0.61780  -0.61603  -0.60959
 Alpha  occ. eigenvalues --   -0.60670  -0.59826  -0.59614  -0.59305  -0.59005
 Alpha  occ. eigenvalues --   -0.58412  -0.57928  -0.57689  -0.57554  -0.57411
 Alpha  occ. eigenvalues --   -0.56947  -0.56506  -0.56283  -0.55827  -0.55692
 Alpha  occ. eigenvalues --   -0.55242  -0.55081  -0.54504  -0.54306  -0.53839
 Alpha  occ. eigenvalues --   -0.53769  -0.53347  -0.53059  -0.52765  -0.52281
 Alpha  occ. eigenvalues --   -0.52140  -0.51249  -0.51034  -0.50875  -0.50455
 Alpha  occ. eigenvalues --   -0.50173  -0.49923  -0.49824  -0.48765  -0.48689
 Alpha  occ. eigenvalues --   -0.48247  -0.47737  -0.47724  -0.47371  -0.47169
 Alpha  occ. eigenvalues --   -0.46424  -0.46247  -0.46141  -0.45830  -0.45399
 Alpha  occ. eigenvalues --   -0.45282  -0.45154  -0.44606  -0.44549  -0.43780
 Alpha  occ. eigenvalues --   -0.43553  -0.43465  -0.43373  -0.42822  -0.42486
 Alpha  occ. eigenvalues --   -0.42374  -0.41676  -0.41145  -0.41058  -0.40566
 Alpha  occ. eigenvalues --   -0.40352  -0.39624  -0.39349  -0.38786  -0.37627
 Alpha  occ. eigenvalues --   -0.37414  -0.36865  -0.35540  -0.35434  -0.34618
 Alpha  occ. eigenvalues --   -0.33872  -0.33337  -0.32453  -0.32358  -0.31190
 Alpha  occ. eigenvalues --   -0.26960  -0.26492  -0.26316  -0.21147  -0.19899
 Alpha  occ. eigenvalues --   -0.15584  -0.15408
 Alpha virt. eigenvalues --    0.27116   0.27637   0.28204   0.29713   0.29768
 Alpha virt. eigenvalues --    0.31427   0.46624   0.47323   0.48883   0.49022
 Alpha virt. eigenvalues --    0.50078   0.50356   0.50742   0.51298   0.52676

 Mulliken charges:
               1
     1  C   -0.077457
     2  C    0.001640
     3  C   -0.061746
     4  C   -0.090062
     5  C    0.088974
     6  C   -0.014618
     7  N   -0.283229
     8  C    0.015313
     9  C    0.130016
    10  C    0.040641
    11  C   -0.114773
    12  C   -0.107890
    13  C    0.041579
    14  N   -0.294084
    15  C   -0.011801
    16  C   -0.095660
    17  C   -0.100276
    18  C   -0.099232
    19  C   -0.013387
    20  C   -0.104320
    21  C   -0.063927
    22  C    0.318245
    23  O   -0.274505
    24  O   -0.255943
    25  C   -0.055280
    26  C   -0.078588
    27  C   -0.109876
    28  C   -0.000078
    29  C   -0.071617
    30  C   -0.061819
    31  C   -0.092384
    32  C    0.088033
    33  C   -0.014629
    34  N   -0.287657
    35  C    0.021188
    36  C    0.128655
    37  C    0.040794
    38  C   -0.115706
    39  C   -0.104777
    40  C    0.028103
    41  N   -0.085513
    42  C   -0.007760
    43  C   -0.110765
    44  C   -0.102164
    45  C   -0.106696
    46  C   -0.012186
    47  C   -0.111558
    48  C   -0.067115
    49  C    0.320416
    50  O   -0.278628
    51  O   -0.254171
    52  C   -0.055720
    53  C   -0.078919
    54  O   -0.453866
    55  H    0.055907
    56  H    0.062143
    57  H    0.059498
    58  H    0.042235
    59  H    0.048510
    60  H    0.053898
    61  H    0.047570
    62  H    0.048253
    63  H    0.038305
    64  H    0.060976
    65  H    0.049242
    66  H    0.056114
    67  H    0.046055
    68  H    0.050874
    69  H    0.064909
    70  H    0.058371
    71  H    0.039698
    72  H    0.061666
    73  H    0.047522
    74  H    0.079778
    75  H    0.062569
    76  H    0.076313
    77  H    0.071143
    78  H    0.074171
    79  H    0.053791
    80  H    0.071719
    81  H    0.075290
    82  H    0.055856
    83  H    0.062751
    84  H    0.091713
    85  H    0.054308
    86  H    0.056484
    87  H    0.086609
    88  H    0.052458
    89  H    0.058373
    90  H    0.053987
    91  H    0.051205
    92  H    0.088892
    93  H    0.080732
    94  H    0.065575
    95  H    0.057216
    96  H    0.056666
    97  H    0.057136
    98  H    0.082655
    99  H    0.071087
   100  H    0.067549
   101  H    0.089116
   102  H    0.066117
   103  H    0.054825
   104  H    0.066894
   105  H    0.075838
   106  H    0.073055
   107  H    0.078848
   108  H    0.075316
   109  H    0.073281
   110  H    0.055723
 Sum of Mulliken charges =  -0.00000

 Dipole moment (field-independent basis, Debye):
    X=             -3.3636    Y=              1.5795    Z=             -4.9641  Tot=              6.2009
 Quadrupole moment (field-independent basis, Debye-Ang):
   XX=           -296.6331   YY=           -291.2513   ZZ=           -298.1840
   XY=            -10.7536   XZ=             13.0459   YZ=             11.1095

 Summary of Natural Population Analysis:

                                       Natural Population
                Natural  -----------------------------------------------
    Atom  No    Charge         Core      Valence    Rydberg      Total
 -----------------------------------------------------------------------
      C    1   -0.06055      1.99993     4.06062    0.00000     6.06055
      C    2    0.01621      1.99991     3.98389    0.00000     5.98379
      C    3   -0.03349      1.99994     4.03354    0.00000     6.03349
      C    4   -0.08736      1.99993     4.08743    0.00000     6.08736
      C    5    0.11262      1.99985     3.88753    0.00000     5.88738
      C    6   -0.02373      1.99990     4.02383    0.00000     6.02373
      N    7   -0.27225      1.99998     5.27227    0.00000     7.27225
      C    8    0.01552      1.99996     3.98453    0.00000     5.98448
      C    9    0.17374      1.99996     3.82630    0.00000     5.82626
      C   10    0.07270      1.99994     3.92736    0.00000     5.92730
      C   11   -0.08447      1.99994     4.08453    0.00000     6.08447
      C   12   -0.07807      1.99996     4.07811    0.00000     6.07807
      C   13    0.06324      1.99998     3.93679    0.00000     5.93676
      N   14   -0.28414      1.99999     5.28415    0.00000     7.28414
      C   15    0.04297      1.99994     3.95709    0.00000     5.95703
      C   16   -0.05873      1.99996     4.05878    0.00000     6.05873
      C   17   -0.06426      1.99995     4.06431    0.00000     6.06426
      C   18   -0.06625      1.99994     4.06631    0.00000     6.06625
      C   19    0.04044      1.99995     3.95960    0.00000     5.95956
      C   20   -0.06674      1.99992     4.06682    0.00000     6.06674
      C   21   -0.08005      1.99994     4.08011    0.00000     6.08005
      C   22    0.40058      1.99991     3.59950    0.00000     5.59942
      O   23   -0.30853      1.99999     6.30854    0.00000     8.30853
      O   24   -0.26765      1.99999     6.26766    0.00000     8.26765
      C   25    0.03513      1.99984     3.96503    0.00000     5.96487
      C   26   -0.01628      1.99992     4.01635    0.00000     6.01628
      C   27   -0.08744      1.99996     4.08749    0.00000     6.08744
      C   28    0.01298      1.99990     3.98711    0.00000     5.98702
      C   29   -0.05060      1.99993     4.05067    0.00000     6.05060
      C   30   -0.03243      1.99994     4.03248    0.00000     6.03243
      C   31   -0.09064      1.99993     4.09071    0.00000     6.09064
      C   32    0.11168      1.99986     3.88847    0.00000     5.88832
      C   33   -0.02896      1.99990     4.02906    0.00000     6.02896
      N   34   -0.27627      1.99998     5.27630    0.00000     7.27627
      C   35    0.02229      1.99996     3.97776    0.00000     5.97771
      C   36    0.17145      1.99996     3.82859    0.00000     5.82855
      C   37    0.07304      1.99991     3.92705    0.00000     5.92696
      C   38   -0.08623      1.99994     4.08629    0.00000     6.08623
      C   39   -0.07266      1.99996     4.07270    0.00000     6.07266
      C   40    0.04996      1.99998     3.95007    0.00000     5.95004
      N   41    0.02631      1.99999     4.97370    0.00000     6.97369
      C   42    0.04346      1.99991     3.95664    0.00000     5.95654
      C   43   -0.08109      1.99997     4.08112    0.00000     6.08109
      C   44   -0.06977      1.99996     4.06981    0.00000     6.06977
      C   45   -0.08096      1.99994     4.08101    0.00000     6.08096
      C   46    0.03829      1.99992     3.96179    0.00000     5.96171
      C   47   -0.07533      1.99992     4.07541    0.00000     6.07533
      C   48   -0.08592      1.99995     4.08597    0.00000     6.08592
      C   49    0.40377      1.99991     3.59632    0.00000     5.59623
      O   50   -0.31301      1.99999     6.31302    0.00000     8.31301
      O   51   -0.26552      1.99999     6.26553    0.00000     8.26552
      C   52    0.03481      1.99984     3.96535    0.00000     5.96519
      C   53   -0.01599      1.99992     4.01607    0.00000     6.01599
      O   54   -0.50478      2.00000     6.50478    0.00000     8.50478
      H   55    0.03095      0.00000     0.96905    0.00000     0.96905
      H   56    0.03442      0.00000     0.96558    0.00000     0.96558
      H   57    0.03536      0.00000     0.96464    0.00000     0.96464
      H   58    0.01182      0.00000     0.98818    0.00000     0.98818
      H   59    0.02654      0.00000     0.97346    0.00000     0.97346
      H   60    0.03096      0.00000     0.96904    0.00000     0.96904
      H   61    0.02731      0.00000     0.97269    0.00000     0.97269
      H   62    0.02798      0.00000     0.97202    0.00000     0.97202
      H   63    0.01067      0.00000     0.98933    0.00000     0.98933
      H   64    0.03498      0.00000     0.96502    0.00000     0.96502
      H   65    0.02799      0.00000     0.97201    0.00000     0.97201
      H   66    0.03405      0.00000     0.96595    0.00000     0.96595
      H   67    0.02460      0.00000     0.97540    0.00000     0.97540
      H   68    0.02928      0.00000     0.97072    0.00000     0.97072
      H   69    0.04049      0.00000     0.95951    0.00000     0.95951
      H   70    0.03630      0.00000     0.96370    0.00000     0.96370
      H   71    0.01201      0.00000     0.98799    0.00000     0.98799
      H   72    0.03535      0.00000     0.96465    0.00000     0.96465
      H   73    0.02467      0.00000     0.97533    0.00000     0.97533
      H   74    0.05321      0.00000     0.94679    0.00000     0.94679
      H   75    0.03950      0.00000     0.96050    0.00000     0.96050
      H   76    0.04534      0.00000     0.95466    0.00000     0.95466
      H   77    0.03968      0.00000     0.96032    0.00000     0.96032
      H   78    0.04276      0.00000     0.95724    0.00000     0.95724
      H   79    0.02850      0.00000     0.97150    0.00000     0.97150
      H   80    0.04739      0.00000     0.95261    0.00000     0.95261
      H   81    0.05103      0.00000     0.94897    0.00000     0.94897
      H   82    0.03733      0.00000     0.96267    0.00000     0.96267
      H   83    0.04375      0.00000     0.95625    0.00000     0.95625
      H   84    0.06245      0.00000     0.93755    0.00000     0.93755
      H   85    0.02728      0.00000     0.97272    0.00000     0.97272
      H   86    0.03278      0.00000     0.96722    0.00000     0.96722
      H   87    0.05059      0.00000     0.94941    0.00000     0.94941
      H   88    0.03016      0.00000     0.96984    0.00000     0.96984
      H   89    0.03505      0.00000     0.96495    0.00000     0.96495
      H   90    0.03236      0.00000     0.96764    0.00000     0.96764
      H   91    0.02988      0.00000     0.97012    0.00000     0.97012
      H   92    0.05719      0.00000     0.94281    0.00000     0.94281
      H   93    0.05013      0.00000     0.94987    0.00000     0.94987
      H   94    0.04586      0.00000     0.95414    0.00000     0.95414
      H   95    0.03658      0.00000     0.96342    0.00000     0.96342
      H   96    0.03555      0.00000     0.96445    0.00000     0.96445
      H   97    0.03621      0.00000     0.96379    0.00000     0.96379
      H   98    0.05952      0.00000     0.94048    0.00000     0.94048
      H   99    0.04806      0.00000     0.95194    0.00000     0.95194
      H  100    0.03573      0.00000     0.96427    0.00000     0.96427
      H  101    0.05831      0.00000     0.94169    0.00000     0.94169
      H  102    0.04101      0.00000     0.95899    0.00000     0.95899
      H  103    0.03271      0.00000     0.96729    0.00000     0.96729
      H  104    0.04414      0.00000     0.95586    0.00000     0.95586
      H  105    0.04421      0.00000     0.95579    0.00000     0.95579
      H  106    0.04140      0.00000     0.95860    0.00000     0.95860
      H  107    0.04760      0.00000     0.95240    0.00000     0.95240
      H  108    0.05092      0.00000     0.94908    0.00000     0.94908
      H  109    0.04879      0.00000     0.95121    0.00000     0.95121
      H  110    0.03026      0.00000     0.96974    0.00000     0.96974
 =======================================================================
   * Total *   -0.00000    107.99670   286.00330    0.00000   394.00000

 Normal termination of Gaussian 16 at Thu May 30 08:49:09 2024.
