 Gaussian 16, Revision B.01,
 Gaussian 16:  ES64L-G16RevB.01 20-Dec-2017

 ----------------------------------------------
 # nmr=giao hf/sto-3g pop=nbo geom=connectivity
 ----------------------------------------------

 ------------------
 pleiokomenine_C_1a
 ------------------
 Symbolic Z-matrix:
 Charge =  0 Multiplicity = 1

                         Standard orientation:
 ---------------------------------------------------------------------
 Center     Atomic      Atomic             Coordinates (Angstroms)
 Number     Number       Type             X           Y           Z
 ---------------------------------------------------------------------
      1          6           0       -1.621944    2.408402    0.455643
      2          6           0       -1.260739    3.558410   -0.260133
      3          6           0       -2.081196    3.990422   -1.323846
      4          6           0       -3.208302    3.258107   -1.720528
      5          6           0       -3.502685    2.075171   -1.065849
      6          6           0       -2.714553    1.672533    0.025219
      7          7           0       -4.524497    1.132280   -1.369911
      8          6           0       -3.272087    0.388804    0.584156
      9          6           0       -3.999504   -0.103413   -0.728280
     10          6           0       -2.325591   -0.716607    1.079040
     11          6           0       -2.925409   -0.779106   -1.690801
     12          6           0       -2.283276   -2.007434   -1.035023
     13          6           0       -2.736226   -2.085060    0.435116
     14          7           0       -2.405090   -0.648728    2.541310
     15          6           0       -1.873003   -1.805771    3.244334
     16          6           0       -2.294001   -3.160822    2.677428
     17          6           0       -2.040440   -3.238207    1.172364
     18          6           0       -4.102634    0.777984    1.829335
     19          6           0       -3.754859   -0.244561    2.903789
     20          6           0       -4.284302   -2.319699    0.382143
     21          6           0       -5.012656   -1.226810   -0.447006
     22          6           0       -6.336071   -0.819175    0.175640
     23          8           0       -6.673979   -1.055017    1.329378
     24          8           0       -7.140230   -0.221265   -0.747859
     25          6           0       -8.391719    0.228886   -0.230958
     26          6           0       -4.994733    1.113920   -2.747608
     27          6           0       -0.021748    4.352060    0.106665
     28          6           0        1.221362    3.539687    0.429802
     29          6           0        1.532662    2.361519   -0.267585
     30          6           0        2.105381    3.998388    1.428189
     31          6           0        3.246274    3.268456    1.782646
     32          6           0        3.499380    2.067087    1.143378
     33          6           0        2.656711    1.637999    0.103364
     34          7           0        4.532418    1.130885    1.422828
     35          6           0        3.200203    0.345689   -0.455175
     36          6           0        4.000108   -0.117289    0.826335
     37          6           0        2.241992   -0.770410   -0.873422
     38          6           0        2.979742   -0.800935    1.838896
     39          6           0        2.349156   -2.059633    1.222515
     40          6           0        2.717760   -2.127670   -0.277242
     41          7           0        2.097776   -0.724897   -2.400173
     42          6           0        2.646112   -1.955333   -3.079153
     43          6           0        2.109504   -3.255549   -2.495801
     44          6           0        1.986606   -3.278047   -0.971679
     45          6           0        3.947199    0.673393   -1.753730
     46          6           0        2.882520    0.498687   -2.823372
     47          6           0        4.275222   -2.321996   -0.303925
     48          6           0        5.018412   -1.229599    0.519659
     49          6           0        6.335113   -0.807132   -0.115484
     50          8           0        6.672287   -1.065621   -1.264323
     51          8           0        7.132964   -0.179478    0.791232
     52          6           0        8.382900    0.267957    0.265926
     53          6           0        5.064730    1.146480    2.779423
     54          8           0        0.779907   -0.581561   -2.752465
     55          1           0       -1.042764    2.070278    1.310672
     56          1           0       -1.833316    4.899463   -1.867794
     57          1           0       -3.809885    3.608546   -2.550821
     58          1           0       -1.285415   -0.495235    0.802493
     59          1           0       -3.393145   -1.087019   -2.634835
     60          1           0       -2.134306   -0.074799   -1.975992
     61          1           0       -2.569815   -2.916284   -1.579069
     62          1           0       -1.191877   -1.935967   -1.110763
     63          1           0       -0.777748   -1.744280    3.199950
     64          1           0       -2.123480   -1.754814    4.310904
     65          1           0       -1.726449   -3.953681    3.178887
     66          1           0       -3.349882   -3.349618    2.899089
     67          1           0       -0.958680   -3.195994    0.994816
     68          1           0       -2.381382   -4.207424    0.789239
     69          1           0       -5.174104    0.859236    1.650095
     70          1           0       -3.802354    1.764082    2.212794
     71          1           0       -3.778648    0.214742    3.897855
     72          1           0       -4.464499   -1.073274    2.912108
     73          1           0       -4.481824   -3.290354   -0.095242
     74          1           0       -4.703685   -2.423447    1.383046
     75          1           0       -5.299742   -1.700452   -1.398496
     76          1           0       -8.238092    0.939086    0.587676
     77          1           0       -8.926099    0.740830   -1.035983
     78          1           0       -8.995723   -0.621514    0.100188
     79          1           0       -4.169846    1.056329   -3.466812
     80          1           0       -5.583450    2.012562   -2.961113
     81          1           0       -5.650607    0.255360   -2.921496
     82          1           0        0.243987    5.028971   -0.715246
     83          1           0       -0.287658    4.979734    0.967029
     84          1           0        0.883218    2.000996   -1.062915
     85          1           0        1.896133    4.928490    1.953221
     86          1           0        3.895767    3.640672    2.566429
     87          1           0        1.226071   -0.556963   -0.509833
     88          1           0        3.485078   -1.078721    2.772602
     89          1           0        2.179545   -0.111344    2.135643
     90          1           0        1.262234   -2.030306    1.366680
     91          1           0        2.704907   -2.954136    1.749333
     92          1           0        2.366198   -1.869654   -4.136659
     93          1           0        3.735132   -1.901619   -3.033024
     94          1           0        1.122300   -3.467056   -2.925826
     95          1           0        2.757634   -4.077400   -2.823643
     96          1           0        0.919115   -3.226880   -0.720923
     97          1           0        2.330440   -4.246837   -0.588639
     98          1           0        4.389466    1.674836   -1.785545
     99          1           0        4.736725   -0.037959   -1.974877
    100          1           0        3.288472    0.333798   -3.825900
    101          1           0        2.181632    1.338175   -2.857133
    102          1           0        4.655464   -2.377049   -1.323148
    103          1           0        4.520934   -3.300339    0.133332
    104          1           0        5.324613   -1.709299    1.462291
    105          1           0        8.992903   -0.585610   -0.045152
    106          1           0        8.912175    0.801649    1.060066
    107          1           0        8.225016    0.958154   -0.568811
    108          1           0        5.719558    0.286770    2.950761
    109          1           0        5.668817    2.045654    2.941509
    110          1           0        4.270899    1.114959    3.534471
 ---------------------------------------------------------------------

 SCF Done:  E(RHF) =  -2300.21823921     A.U. after   16 cycles

      1  C    Isotropic =   124.4016   Anisotropy =   155.1283

      2  C    Isotropic =   118.9906   Anisotropy =   160.3822

      3  C    Isotropic =   118.7731   Anisotropy =   151.4436

      4  C    Isotropic =   133.3839   Anisotropy =   143.7950

      5  C    Isotropic =   108.1711   Anisotropy =   128.9005

      6  C    Isotropic =   117.2202   Anisotropy =   142.1170

      7  N    Isotropic =   272.6890   Anisotropy =    80.0223

      8  C    Isotropic =   196.0934   Anisotropy =    13.7170

      9  C    Isotropic =   180.8163   Anisotropy =    45.0952

     10  C    Isotropic =   189.7890   Anisotropy =    27.8163

     11  C    Isotropic =   213.5619   Anisotropy =    20.9106

     12  C    Isotropic =   213.0066   Anisotropy =    19.1556

     13  C    Isotropic =   213.7343   Anisotropy =    10.3361

     14  N    Isotropic =   303.1707   Anisotropy =    54.9965

     15  C    Isotropic =   205.4773   Anisotropy =    32.6695

     16  C    Isotropic =   224.2911   Anisotropy =     7.4692

     17  C    Isotropic =   215.2856   Anisotropy =    17.9330

     18  C    Isotropic =   210.9652   Anisotropy =    36.6040

     19  C    Isotropic =   199.7702   Anisotropy =    43.9236

     20  C    Isotropic =   212.1548   Anisotropy =    22.9819

     21  C    Isotropic =   208.8931   Anisotropy =    12.0554

     22  C    Isotropic =    95.9648   Anisotropy =    98.5330

     23  O    Isotropic =  -133.3694   Anisotropy =   885.1989

     24  O    Isotropic =   284.1063   Anisotropy =   139.4298

     25  C    Isotropic =   197.3998   Anisotropy =    57.9675

     26  C    Isotropic =   209.6284   Anisotropy =    41.1565

     27  C    Isotropic =   206.3769   Anisotropy =    22.4676

     28  C    Isotropic =   117.2007   Anisotropy =   161.9970

     29  C    Isotropic =   123.5583   Anisotropy =   155.8214

     30  C    Isotropic =   117.7596   Anisotropy =   153.7717

     31  C    Isotropic =   133.5976   Anisotropy =   143.2203

     32  C    Isotropic =   108.5900   Anisotropy =   127.6556

     33  C    Isotropic =   120.9180   Anisotropy =   135.8693

     34  N    Isotropic =   273.7379   Anisotropy =    80.2263

     35  C    Isotropic =   197.4468   Anisotropy =    14.9909

     36  C    Isotropic =   180.6612   Anisotropy =    44.4406

     37  C    Isotropic =   175.3823   Anisotropy =    54.6622

     38  C    Isotropic =   213.4219   Anisotropy =    19.9428

     39  C    Isotropic =   212.0502   Anisotropy =    19.9772

     40  C    Isotropic =   211.1443   Anisotropy =     8.4974

     41  N    Isotropic =   227.6303   Anisotropy =    56.8097

     42  C    Isotropic =   196.8407   Anisotropy =    47.4193

     43  C    Isotropic =   221.8328   Anisotropy =    10.7465

     44  C    Isotropic =   217.9391   Anisotropy =    19.1288

     45  C    Isotropic =   214.1402   Anisotropy =    28.5105

     46  C    Isotropic =   187.1666   Anisotropy =    61.6656

     47  C    Isotropic =   212.1858   Anisotropy =    25.1917

     48  C    Isotropic =   208.5466   Anisotropy =    12.2562

     49  C    Isotropic =    96.0435   Anisotropy =    98.0648

     50  O    Isotropic =  -131.1509   Anisotropy =   881.3008

     51  O    Isotropic =   282.6760   Anisotropy =   138.7486

     52  C    Isotropic =   197.1790   Anisotropy =    58.4252

     53  C    Isotropic =   209.3659   Anisotropy =    41.6596

     54  O    Isotropic =    31.7860   Anisotropy =   453.1033

     55  H    Isotropic =    26.4109   Anisotropy =    14.8049

     56  H    Isotropic =    25.6697   Anisotropy =     6.0049

     57  H    Isotropic =    26.4407   Anisotropy =     7.8539

     58  H    Isotropic =    31.6544   Anisotropy =    15.0532

     59  H    Isotropic =    32.1237   Anisotropy =    12.4372

     60  H    Isotropic =    32.5052   Anisotropy =     9.6062

     61  H    Isotropic =    32.3438   Anisotropy =    13.1546

     62  H    Isotropic =    31.9970   Anisotropy =    19.8851

     63  H    Isotropic =    32.0894   Anisotropy =    14.7335

     64  H    Isotropic =    31.9394   Anisotropy =    15.4399

     65  H    Isotropic =    32.7481   Anisotropy =    16.7351

     66  H    Isotropic =    32.5541   Anisotropy =    12.7796

     67  H    Isotropic =    32.7237   Anisotropy =    16.1698

     68  H    Isotropic =    32.4747   Anisotropy =    13.5631

     69  H    Isotropic =    32.9202   Anisotropy =    12.2670

     70  H    Isotropic =    32.4096   Anisotropy =    11.6059

     71  H    Isotropic =    31.9564   Anisotropy =    16.3213

     72  H    Isotropic =    31.9686   Anisotropy =    10.2843

     73  H    Isotropic =    32.2125   Anisotropy =    14.3088

     74  H    Isotropic =    31.4159   Anisotropy =    10.3483

     75  H    Isotropic =    31.1428   Anisotropy =    12.2579

     76  H    Isotropic =    30.6252   Anisotropy =     8.0844

     77  H    Isotropic =    30.5225   Anisotropy =    12.2562

     78  H    Isotropic =    30.5640   Anisotropy =    11.8687

     79  H    Isotropic =    31.7233   Anisotropy =    10.5473

     80  H    Isotropic =    30.7128   Anisotropy =    15.0453

     81  H    Isotropic =    30.8565   Anisotropy =    10.8744

     82  H    Isotropic =    30.0504   Anisotropy =    11.8959

     83  H    Isotropic =    29.9665   Anisotropy =    11.9214

     84  H    Isotropic =    26.2352   Anisotropy =    15.6861

     85  H    Isotropic =    25.5086   Anisotropy =     6.2433

     86  H    Isotropic =    26.4003   Anisotropy =     7.9410

     87  H    Isotropic =    30.7991   Anisotropy =    12.8932

     88  H    Isotropic =    32.0481   Anisotropy =    12.8315

     89  H    Isotropic =    32.6883   Anisotropy =     8.6298

     90  H    Isotropic =    32.2708   Anisotropy =    18.8097

     91  H    Isotropic =    32.1597   Anisotropy =    13.5219

     92  H    Isotropic =    30.9845   Anisotropy =    14.1806

     93  H    Isotropic =    31.8399   Anisotropy =     8.9749

     94  H    Isotropic =    31.3373   Anisotropy =    14.3701

     95  H    Isotropic =    32.2431   Anisotropy =    16.9155

     96  H    Isotropic =    32.0449   Anisotropy =    16.9258

     97  H    Isotropic =    32.3224   Anisotropy =    13.8742

     98  H    Isotropic =    32.9330   Anisotropy =    12.7339

     99  H    Isotropic =    32.6583   Anisotropy =    11.5318

    100  H    Isotropic =    31.3622   Anisotropy =    13.8478

    101  H    Isotropic =    30.7218   Anisotropy =    10.7962

    102  H    Isotropic =    31.5528   Anisotropy =    10.1084

    103  H    Isotropic =    32.0738   Anisotropy =    14.5281

    104  H    Isotropic =    31.1534   Anisotropy =    12.2143

    105  H    Isotropic =    30.5399   Anisotropy =    11.8861

    106  H    Isotropic =    30.4730   Anisotropy =    12.1289

    107  H    Isotropic =    30.6021   Anisotropy =     8.1666

    108  H    Isotropic =    30.8232   Anisotropy =    10.8063

    109  H    Isotropic =    30.6179   Anisotropy =    14.9780

    110  H    Isotropic =    31.7662   Anisotropy =    10.7891

 The electronic state is 1-A.
 Alpha  occ. eigenvalues --  -20.31341 -20.29919 -20.25325 -20.23781 -19.91824
 Alpha  occ. eigenvalues --  -15.48369 -15.34132 -15.32513 -15.29877 -11.17353
 Alpha  occ. eigenvalues --  -11.15732 -11.11085 -11.10383 -11.09947 -11.09409
 Alpha  occ. eigenvalues --  -11.08785 -11.08692 -11.08260 -11.08169 -11.07369
 Alpha  occ. eigenvalues --  -11.07346 -11.07252 -11.06811 -11.06481 -11.06230
 Alpha  occ. eigenvalues --  -11.05945 -11.05717 -11.05673 -11.05561 -11.05460
 Alpha  occ. eigenvalues --  -11.05453 -11.05136 -11.05020 -11.04739 -11.04644
 Alpha  occ. eigenvalues --  -11.04560 -11.04354 -11.04082 -11.03634 -11.03526
 Alpha  occ. eigenvalues --  -11.03509 -11.02914 -11.02246 -11.02117 -11.02064
 Alpha  occ. eigenvalues --  -11.01971 -11.01916 -11.01889 -11.01536 -11.01234
 Alpha  occ. eigenvalues --  -11.00875 -11.00845 -11.00572 -11.00408  -1.38560
 Alpha  occ. eigenvalues --   -1.37119  -1.28404  -1.28207  -1.26903  -1.21583
 Alpha  occ. eigenvalues --   -1.20409  -1.18056  -1.12051  -1.09004  -1.08479
 Alpha  occ. eigenvalues --   -1.07185  -1.06205  -1.04245  -1.03677  -1.00795
 Alpha  occ. eigenvalues --   -0.99982  -0.98737  -0.97938  -0.97465  -0.96831
 Alpha  occ. eigenvalues --   -0.95732  -0.94438  -0.93632  -0.93357  -0.92589
 Alpha  occ. eigenvalues --   -0.92247  -0.90957  -0.90887  -0.89251  -0.87841
 Alpha  occ. eigenvalues --   -0.86541  -0.84727  -0.82610  -0.82381  -0.80878
 Alpha  occ. eigenvalues --   -0.80788  -0.79220  -0.78900  -0.78287  -0.76687
 Alpha  occ. eigenvalues --   -0.76367  -0.74825  -0.73321  -0.72911  -0.71707
 Alpha  occ. eigenvalues --   -0.70729  -0.69754  -0.69403  -0.68685  -0.66610
 Alpha  occ. eigenvalues --   -0.65522  -0.65029  -0.64694  -0.64010  -0.63854
 Alpha  occ. eigenvalues --   -0.62744  -0.61872  -0.61803  -0.61361  -0.60872
 Alpha  occ. eigenvalues --   -0.60429  -0.59849  -0.59604  -0.58973  -0.58737
 Alpha  occ. eigenvalues --   -0.58536  -0.58097  -0.57790  -0.57579  -0.57177
 Alpha  occ. eigenvalues --   -0.56933  -0.56294  -0.55997  -0.55701  -0.55590
 Alpha  occ. eigenvalues --   -0.55293  -0.55001  -0.54191  -0.53826  -0.53789
 Alpha  occ. eigenvalues --   -0.53345  -0.53182  -0.52747  -0.52464  -0.52306
 Alpha  occ. eigenvalues --   -0.51760  -0.51361  -0.51232  -0.50738  -0.50619
 Alpha  occ. eigenvalues --   -0.50017  -0.49910  -0.49406  -0.48888  -0.48593
 Alpha  occ. eigenvalues --   -0.48425  -0.48235  -0.47943  -0.47408  -0.47285
 Alpha  occ. eigenvalues --   -0.46979  -0.46702  -0.45910  -0.45626  -0.45144
 Alpha  occ. eigenvalues --   -0.44843  -0.44827  -0.44506  -0.43907  -0.43769
 Alpha  occ. eigenvalues --   -0.43602  -0.43233  -0.42745  -0.42499  -0.42326
 Alpha  occ. eigenvalues --   -0.41933  -0.41729  -0.41572  -0.41452  -0.40535
 Alpha  occ. eigenvalues --   -0.40097  -0.39604  -0.39404  -0.39153  -0.37862
 Alpha  occ. eigenvalues --   -0.37473  -0.36419  -0.36169  -0.35511  -0.34802
 Alpha  occ. eigenvalues --   -0.33944  -0.33371  -0.32630  -0.32588  -0.31039
 Alpha  occ. eigenvalues --   -0.27312  -0.26248  -0.25356  -0.21413  -0.19867
 Alpha  occ. eigenvalues --   -0.15461  -0.15212
 Alpha virt. eigenvalues --    0.26776   0.27916   0.28282   0.29119   0.29730
 Alpha virt. eigenvalues --    0.31235   0.46093   0.46700   0.48783   0.49173
 Alpha virt. eigenvalues --    0.49591   0.49691   0.50761   0.51123   0.52767

 Mulliken charges:
               1
     1  C   -0.073260
     2  C   -0.001365
     3  C   -0.062262
     4  C   -0.089116
     5  C    0.090140
     6  C   -0.010127
     7  N   -0.285416
     8  C    0.018405
     9  C    0.126161
    10  C    0.041287
    11  C   -0.115955
    12  C   -0.107140
    13  C    0.026760
    14  N   -0.292367
    15  C   -0.014155
    16  C   -0.108493
    17  C   -0.101895
    18  C   -0.105348
    19  C   -0.019392
    20  C   -0.110100
    21  C   -0.066401
    22  C    0.319360
    23  O   -0.278968
    24  O   -0.255064
    25  C   -0.055561
    26  C   -0.079933
    27  C   -0.109947
    28  C    0.001311
    29  C   -0.074101
    30  C   -0.060711
    31  C   -0.090583
    32  C    0.089750
    33  C   -0.020561
    34  N   -0.285732
    35  C    0.014634
    36  C    0.128665
    37  C    0.034247
    38  C   -0.116025
    39  C   -0.104498
    40  C    0.032250
    41  N   -0.073978
    42  C   -0.008041
    43  C   -0.101601
    44  C   -0.102355
    45  C   -0.120241
    46  C   -0.013367
    47  C   -0.111510
    48  C   -0.066214
    49  C    0.321261
    50  O   -0.279157
    51  O   -0.254337
    52  C   -0.055346
    53  C   -0.079494
    54  O   -0.457149
    55  H    0.065452
    56  H    0.054021
    57  H    0.057794
    58  H    0.056058
    59  H    0.050126
    60  H    0.070228
    61  H    0.045085
    62  H    0.063476
    63  H    0.050073
    64  H    0.060572
    65  H    0.051329
    66  H    0.050994
    67  H    0.046534
    68  H    0.050823
    69  H    0.063025
    70  H    0.062131
    71  H    0.055525
    72  H    0.051016
    73  H    0.050154
    74  H    0.065716
    75  H    0.064986
    76  H    0.074240
    77  H    0.076613
    78  H    0.071319
    79  H    0.058697
    80  H    0.069546
    81  H    0.074954
    82  H    0.060806
    83  H    0.060776
    84  H    0.077527
    85  H    0.057547
    86  H    0.059199
    87  H    0.090854
    88  H    0.053453
    89  H    0.059386
    90  H    0.056351
    91  H    0.051528
    92  H    0.087279
    93  H    0.061162
    94  H    0.075767
    95  H    0.059511
    96  H    0.063342
    97  H    0.055298
    98  H    0.072291
    99  H    0.070143
   100  H    0.074531
   101  H    0.093457
   102  H    0.065548
   103  H    0.055860
   104  H    0.067080
   105  H    0.073172
   106  H    0.078766
   107  H    0.075829
   108  H    0.076370
   109  H    0.072755
   110  H    0.056957
 Sum of Mulliken charges =  -0.00000

 Dipole moment (field-independent basis, Debye):
    X=              3.6966    Y=             -2.0072    Z=              1.0515  Tot=              4.3358
 Quadrupole moment (field-independent basis, Debye-Ang):
   XX=           -278.7169   YY=           -292.8195   ZZ=           -303.4548
   XY=             -1.8576   XZ=             11.1017   YZ=             -0.8181

 Summary of Natural Population Analysis:

                                       Natural Population
                Natural  -----------------------------------------------
    Atom  No    Charge         Core      Valence    Rydberg      Total
 -----------------------------------------------------------------------
      C    1   -0.05467      1.99992     4.05474    0.00000     6.05467
      C    2    0.01180      1.99990     3.98829    0.00000     5.98820
      C    3   -0.03419      1.99994     4.03425    0.00000     6.03419
      C    4   -0.08622      1.99993     4.08629    0.00000     6.08622
      C    5    0.11353      1.99985     3.88662    0.00000     5.88647
      C    6   -0.02150      1.99990     4.02160    0.00000     6.02150
      N    7   -0.27374      1.99998     5.27376    0.00000     7.27374
      C    8    0.01974      1.99996     3.98030    0.00000     5.98026
      C    9    0.16976      1.99996     3.83029    0.00000     5.83024
      C   10    0.07546      1.99993     3.92461    0.00000     5.92454
      C   11   -0.08649      1.99994     4.08655    0.00000     6.08649
      C   12   -0.07589      1.99996     4.07593    0.00000     6.07589
      C   13    0.04897      1.99998     3.95105    0.00000     5.95103
      N   14   -0.28092      1.99999     5.28092    0.00000     7.28092
      C   15    0.03952      1.99994     3.96054    0.00000     5.96048
      C   16   -0.07483      1.99997     4.07486    0.00000     6.07483
      C   17   -0.06776      1.99996     4.06780    0.00000     6.06776
      C   18   -0.07546      1.99995     4.07551    0.00000     6.07546
      C   19    0.03417      1.99994     3.96588    0.00000     5.96583
      C   20   -0.07312      1.99992     4.07319    0.00000     6.07312
      C   21   -0.08452      1.99994     4.08457    0.00000     6.08452
      C   22    0.40323      1.99991     3.59686    0.00000     5.59677
      O   23   -0.31331      1.99999     6.31332    0.00000     8.31331
      O   24   -0.26668      1.99999     6.26669    0.00000     8.26668
      C   25    0.03476      1.99984     3.96540    0.00000     5.96524
      C   26   -0.01742      1.99992     4.01750    0.00000     6.01742
      C   27   -0.08657      1.99995     4.08662    0.00000     6.08657
      C   28    0.01594      1.99990     3.98415    0.00000     5.98406
      C   29   -0.05397      1.99992     4.05405    0.00000     6.05397
      C   30   -0.03204      1.99994     4.03210    0.00000     6.03204
      C   31   -0.08857      1.99993     4.08863    0.00000     6.08857
      C   32    0.11386      1.99985     3.88629    0.00000     5.88614
      C   33   -0.03429      1.99990     4.03439    0.00000     6.03429
      N   34   -0.27429      1.99998     5.27431    0.00000     7.27429
      C   35    0.01361      1.99996     3.98643    0.00000     5.98639
      C   36    0.17194      1.99996     3.82810    0.00000     5.82806
      C   37    0.06563      1.99990     3.93448    0.00000     5.93437
      C   38   -0.08647      1.99994     4.08653    0.00000     6.08647
      C   39   -0.07174      1.99995     4.07179    0.00000     6.07174
      C   40    0.05484      1.99998     3.94518    0.00000     5.94516
      N   41    0.04043      1.99999     4.95958    0.00000     6.95957
      C   42    0.04560      1.99990     3.95450    0.00000     5.95440
      C   43   -0.07189      1.99996     4.07193    0.00000     6.07189
      C   44   -0.07115      1.99995     4.07120    0.00000     6.07115
      C   45   -0.09472      1.99995     4.09477    0.00000     6.09472
      C   46    0.03817      1.99991     3.96192    0.00000     5.96183
      C   47   -0.07421      1.99992     4.07429    0.00000     6.07421
      C   48   -0.08360      1.99994     4.08366    0.00000     6.08360
      C   49    0.40466      1.99991     3.59543    0.00000     5.59534
      O   50   -0.31382      1.99998     6.31384    0.00000     8.31382
      O   51   -0.26594      1.99999     6.26595    0.00000     8.26594
      C   52    0.03525      1.99984     3.96491    0.00000     5.96475
      C   53   -0.01659      1.99992     4.01667    0.00000     6.01659
      O   54   -0.51091      2.00000     6.51091    0.00000     8.51091
      H   55    0.03938      0.00000     0.96062    0.00000     0.96062
      H   56    0.02702      0.00000     0.97298    0.00000     0.97298
      H   57    0.03372      0.00000     0.96628    0.00000     0.96628
      H   58    0.02474      0.00000     0.97526    0.00000     0.97526
      H   59    0.02817      0.00000     0.97183    0.00000     0.97183
      H   60    0.04577      0.00000     0.95423    0.00000     0.95423
      H   61    0.02459      0.00000     0.97541    0.00000     0.97541
      H   62    0.04107      0.00000     0.95893    0.00000     0.95893
      H   63    0.02338      0.00000     0.97662    0.00000     0.97662
      H   64    0.03485      0.00000     0.96515    0.00000     0.96515
      H   65    0.03169      0.00000     0.96831    0.00000     0.96831
      H   66    0.03043      0.00000     0.96957    0.00000     0.96957
      H   67    0.02592      0.00000     0.97408    0.00000     0.97408
      H   68    0.03006      0.00000     0.96994    0.00000     0.96994
      H   69    0.04054      0.00000     0.95946    0.00000     0.95946
      H   70    0.04098      0.00000     0.95902    0.00000     0.95902
      H   71    0.02942      0.00000     0.97058    0.00000     0.97058
      H   72    0.02201      0.00000     0.97799    0.00000     0.97799
      H   73    0.02810      0.00000     0.97190    0.00000     0.97190
      H   74    0.04061      0.00000     0.95939    0.00000     0.95939
      H   75    0.04220      0.00000     0.95780    0.00000     0.95780
      H   76    0.04281      0.00000     0.95719    0.00000     0.95719
      H   77    0.04562      0.00000     0.95438    0.00000     0.95438
      H   78    0.03988      0.00000     0.96012    0.00000     0.96012
      H   79    0.03304      0.00000     0.96696    0.00000     0.96696
      H   80    0.04538      0.00000     0.95462    0.00000     0.95462
      H   81    0.05065      0.00000     0.94935    0.00000     0.94935
      H   82    0.04202      0.00000     0.95798    0.00000     0.95798
      H   83    0.04201      0.00000     0.95799    0.00000     0.95799
      H   84    0.05014      0.00000     0.94986    0.00000     0.94986
      H   85    0.03015      0.00000     0.96985    0.00000     0.96985
      H   86    0.03517      0.00000     0.96483    0.00000     0.96483
      H   87    0.05461      0.00000     0.94539    0.00000     0.94539
      H   88    0.03103      0.00000     0.96897    0.00000     0.96897
      H   89    0.03585      0.00000     0.96415    0.00000     0.96415
      H   90    0.03430      0.00000     0.96570    0.00000     0.96570
      H   91    0.03000      0.00000     0.97000    0.00000     0.97000
      H   92    0.05590      0.00000     0.94410    0.00000     0.94410
      H   93    0.02976      0.00000     0.97024    0.00000     0.97024
      H   94    0.05347      0.00000     0.94653    0.00000     0.94653
      H   95    0.03926      0.00000     0.96074    0.00000     0.96074
      H   96    0.04156      0.00000     0.95844    0.00000     0.95844
      H   97    0.03463      0.00000     0.96537    0.00000     0.96537
      H   98    0.05176      0.00000     0.94824    0.00000     0.94824
      H   99    0.04635      0.00000     0.95365    0.00000     0.95365
      H  100    0.04444      0.00000     0.95556    0.00000     0.95556
      H  101    0.06051      0.00000     0.93949    0.00000     0.93949
      H  102    0.03995      0.00000     0.96005    0.00000     0.96005
      H  103    0.03326      0.00000     0.96674    0.00000     0.96674
      H  104    0.04387      0.00000     0.95613    0.00000     0.95613
      H  105    0.04148      0.00000     0.95852    0.00000     0.95852
      H  106    0.04751      0.00000     0.95249    0.00000     0.95249
      H  107    0.04419      0.00000     0.95581    0.00000     0.95581
      H  108    0.05183      0.00000     0.94817    0.00000     0.94817
      H  109    0.04823      0.00000     0.95177    0.00000     0.95177
      H  110    0.03138      0.00000     0.96862    0.00000     0.96862
 =======================================================================
   * Total *   -0.00000    107.99666   286.00334    0.00000   394.00000

 Normal termination of Gaussian 16 at Thu May 30 08:43:17 2024.
