 Gaussian 16, Revision B.01,
 Gaussian 16:  ES64L-G16RevB.01 20-Dec-2017

 ----------------------------------------------
 # nmr=giao hf/sto-3g pop=nbo geom=connectivity
 ----------------------------------------------

 ------------------
 pleiokomenine_C_1a
 ------------------
 Symbolic Z-matrix:
 Charge =  0 Multiplicity = 1

                         Standard orientation:
 ---------------------------------------------------------------------
 Center     Atomic      Atomic             Coordinates (Angstroms)
 Number     Number       Type             X           Y           Z
 ---------------------------------------------------------------------
      1          6           0        1.748359    2.256013   -0.545967
      2          6           0        1.343833    3.425652    0.114238
      3          6           0        2.111216    3.904125    1.198299
      4          6           0        3.232994    3.205930    1.666146
      5          6           0        3.578895    2.014163    1.055752
      6          6           0        2.842759    1.561908   -0.057100
      7          7           0        4.607826    1.098152    1.425544
      8          6           0        3.489058    0.298826   -0.566366
      9          6           0        4.126335   -0.159813    0.795149
     10          6           0        2.655136   -0.850658   -1.134070
     11          6           0        2.985047   -0.782475    1.726740
     12          6           0        2.278601   -1.959776    1.053137
     13          6           0        2.859964   -2.166886   -0.349641
     14          7           0        3.218343   -1.076004   -2.465313
     15          6           0        2.405646   -1.954609   -3.273848
     16          6           0        2.437689   -3.340470   -2.606840
     17          6           0        2.120440   -3.300451   -1.099960
     18          6           0        4.367363    0.744903   -1.764379
     19          6           0        3.613430    0.211696   -2.985229
     20          6           0        4.390716   -2.465349   -0.169837
     21          6           0        5.121140   -1.326336    0.616884
     22          6           0        6.482086   -0.995229    0.026004
     23          8           0        6.932682   -1.457559   -1.014943
     24          8           0        7.189959   -0.186208    0.862994
     25          6           0        8.472946    0.193583    0.367343
     26          6           0        5.032061    1.125479    2.816887
     27          6           0        0.119275    4.199936   -0.338710
     28          6           0       -1.048179    3.336734   -0.775757
     29          6           0       -1.591894    2.388811    0.103892
     30          6           0       -1.591114    3.471602   -2.069318
     31          6           0       -2.632887    2.644898   -2.507404
     32          6           0       -3.119672    1.668808   -1.654303
     33          6           0       -2.609859    1.564095   -0.348623
     34          7           0       -4.099585    0.677879   -1.928836
     35          6           0       -3.364431    0.484834    0.388901
     36          6           0       -3.819531   -0.337032   -0.885747
     37          6           0       -2.633078   -0.461431    1.357648
     38          6           0       -2.607908   -1.257335   -1.358238
     39          6           0       -2.219346   -2.267782   -0.270170
     40          6           0       -3.005614   -1.944376    1.017312
     41          7           0       -3.016050    0.011113    2.749342
     42          6           0       -2.807638   -1.022267    3.825020
     43          6           0       -3.234114   -2.434266    3.474032
     44          6           0       -2.600123   -2.878736    2.161337
     45          6           0       -4.431528    1.197580    1.258596
     46          6           0       -4.423932    0.496811    2.611199
     47          6           0       -4.509926   -2.173093    0.641644
     48          6           0       -4.951677   -1.329128   -0.579677
     49          6           0       -6.343900   -0.750612   -0.398232
     50          8           0       -6.917259   -0.644087    0.679223
     51          8           0       -6.897860   -0.432062   -1.599674
     52          6           0       -8.194439    0.158840   -1.509472
     53          6           0       -4.275337    0.302617   -3.324247
     54          8           0       -2.217248    1.089800    3.100982
     55          1           0        1.205579    1.886656   -1.410369
     56          1           0        1.822931    4.824743    1.702065
     57          1           0        3.791165    3.592297    2.510693
     58          1           0        1.592112   -0.578109   -1.190015
     59          1           0        2.229600   -0.041209    2.015548
     60          1           0        3.420321   -1.123993    2.675401
     61          1           0        2.397996   -2.865169    1.661197
     62          1           0        1.200811   -1.759640    1.005104
     63          1           0        1.375648   -1.589236   -3.362888
     64          1           0        2.815214   -2.043414   -4.286315
     65          1           0        3.433365   -3.781387   -2.745363
     66          1           0        1.729860   -4.007669   -3.112058
     67          1           0        1.037540   -3.155822   -0.991811
     68          1           0        2.349907   -4.273552   -0.649760
     69          1           0        5.360729    0.299265   -1.741491
     70          1           0        4.512940    1.828399   -1.848915
     71          1           0        2.753737    0.842023   -3.238964
     72          1           0        4.272807    0.131641   -3.854395
     73          1           0        4.511383   -3.403776    0.388530
     74          1           0        4.859772   -2.646578   -1.142309
     75          1           0        5.364982   -1.744260    1.605709
     76          1           0        8.378647    0.706716   -0.595058
     77          1           0        8.921569    0.886127    1.084840
     78          1           0        9.122317   -0.682837    0.278902
     79          1           0        4.185190    1.065133    3.509711
     80          1           0        5.591728    2.043280    3.027006
     81          1           0        5.701232    0.287284    3.033836
     82          1           0        0.429628    4.862999   -1.156041
     83          1           0       -0.238431    4.847200    0.472311
     84          1           0       -1.214113    2.294108    1.120145
     85          1           0       -1.192356    4.219014   -2.751817
     86          1           0       -3.026203    2.767335   -3.509859
     87          1           0       -1.541556   -0.338283    1.319401
     88          1           0       -2.873466   -1.804798   -2.271800
     89          1           0       -1.723838   -0.664024   -1.623337
     90          1           0       -2.434168   -3.287841   -0.612830
     91          1           0       -1.137459   -2.223934   -0.096281
     92          1           0       -1.729630   -1.011727    4.033234
     93          1           0       -3.330002   -0.651394    4.713977
     94          1           0       -2.917276   -3.113067    4.274578
     95          1           0       -4.324835   -2.504903    3.429300
     96          1           0       -1.507867   -2.885220    2.272464
     97          1           0       -2.896417   -3.911509    1.941495
     98          1           0       -4.150943    2.244894    1.441353
     99          1           0       -5.422695    1.255961    0.811518
    100          1           0       -4.635624    1.173382    3.445530
    101          1           0       -5.092627   -0.359441    2.664185
    102          1           0       -5.163140   -2.020131    1.499941
    103          1           0       -4.653738   -3.232788    0.384457
    104          1           0       -5.058205   -2.030855   -1.421223
    105          1           0       -8.910704   -0.555861   -1.092642
    106          1           0       -8.516755    0.423736   -2.520241
    107          1           0       -8.160589    1.071990   -0.906852
    108          1           0       -4.934144   -0.566434   -3.412710
    109          1           0       -4.747224    1.118143   -3.882843
    110          1           0       -3.323809    0.051077   -3.806203
 ---------------------------------------------------------------------

 SCF Done:  E(RHF) =  -2300.21935107     A.U. after   16 cycles

      1  C    Isotropic =   126.9720   Anisotropy =   151.6702

      2  C    Isotropic =   118.1099   Anisotropy =   161.7023

      3  C    Isotropic =   118.6628   Anisotropy =   152.6879

      4  C    Isotropic =   133.1366   Anisotropy =   144.5171

      5  C    Isotropic =   108.1849   Anisotropy =   128.9910

      6  C    Isotropic =   118.2095   Anisotropy =   142.5305

      7  N    Isotropic =   271.9830   Anisotropy =    81.3724

      8  C    Isotropic =   198.6859   Anisotropy =    13.7420

      9  C    Isotropic =   180.1047   Anisotropy =    43.0288

     10  C    Isotropic =   189.3890   Anisotropy =    31.1181

     11  C    Isotropic =   212.8027   Anisotropy =    21.4943

     12  C    Isotropic =   214.4920   Anisotropy =    17.4531

     13  C    Isotropic =   211.1435   Anisotropy =     7.2365

     14  N    Isotropic =   300.7985   Anisotropy =    58.9825

     15  C    Isotropic =   202.6239   Anisotropy =    37.8843

     16  C    Isotropic =   219.6176   Anisotropy =     8.0418

     17  C    Isotropic =   214.1768   Anisotropy =    21.1610

     18  C    Isotropic =   209.6491   Anisotropy =    31.2546

     19  C    Isotropic =   200.1366   Anisotropy =    40.3549

     20  C    Isotropic =   212.3290   Anisotropy =    22.2518

     21  C    Isotropic =   208.2332   Anisotropy =    12.6186

     22  C    Isotropic =    96.9853   Anisotropy =    98.6912

     23  O    Isotropic =  -136.1411   Anisotropy =   887.3491

     24  O    Isotropic =   284.5756   Anisotropy =   138.1898

     25  C    Isotropic =   197.3632   Anisotropy =    58.0396

     26  C    Isotropic =   209.6726   Anisotropy =    41.5184

     27  C    Isotropic =   206.2198   Anisotropy =    20.6158

     28  C    Isotropic =   117.9377   Anisotropy =   163.9481

     29  C    Isotropic =   121.0467   Anisotropy =   161.3603

     30  C    Isotropic =   118.4414   Anisotropy =   152.6092

     31  C    Isotropic =   134.4831   Anisotropy =   142.7625

     32  C    Isotropic =   109.1360   Anisotropy =   127.8489

     33  C    Isotropic =   119.5764   Anisotropy =   137.8738

     34  N    Isotropic =   274.9188   Anisotropy =    80.7706

     35  C    Isotropic =   195.6216   Anisotropy =    13.2711

     36  C    Isotropic =   181.3509   Anisotropy =    43.5415

     37  C    Isotropic =   180.2212   Anisotropy =    45.7670

     38  C    Isotropic =   213.8116   Anisotropy =    20.7514

     39  C    Isotropic =   212.6247   Anisotropy =    21.1849

     40  C    Isotropic =   212.2285   Anisotropy =     8.4519

     41  N    Isotropic =   234.8505   Anisotropy =    24.6858

     42  C    Isotropic =   195.0770   Anisotropy =    48.6427

     43  C    Isotropic =   223.0852   Anisotropy =    10.2130

     44  C    Isotropic =   215.8744   Anisotropy =    18.1553

     45  C    Isotropic =   211.2878   Anisotropy =    38.0728

     46  C    Isotropic =   191.8523   Anisotropy =    53.4088

     47  C    Isotropic =   212.6457   Anisotropy =    22.5475

     48  C    Isotropic =   209.5785   Anisotropy =    11.5037

     49  C    Isotropic =    96.1898   Anisotropy =    99.2012

     50  O    Isotropic =  -133.7899   Anisotropy =   886.6442

     51  O    Isotropic =   283.2907   Anisotropy =   138.8489

     52  C    Isotropic =   197.1571   Anisotropy =    58.3683

     53  C    Isotropic =   209.8318   Anisotropy =    40.9640

     54  O    Isotropic =     3.0017   Anisotropy =   517.2521

     55  H    Isotropic =    27.2762   Anisotropy =    15.6193

     56  H    Isotropic =    25.5851   Anisotropy =     6.1501

     57  H    Isotropic =    26.3856   Anisotropy =     7.5816

     58  H    Isotropic =    32.6673   Anisotropy =    12.8035

     59  H    Isotropic =    32.9500   Anisotropy =     8.6892

     60  H    Isotropic =    32.1130   Anisotropy =    12.4502

     61  H    Isotropic =    32.3575   Anisotropy =    13.6108

     62  H    Isotropic =    32.9058   Anisotropy =    18.4045

     63  H    Isotropic =    32.8464   Anisotropy =    11.6620

     64  H    Isotropic =    31.8770   Anisotropy =    15.3045

     65  H    Isotropic =    31.9299   Anisotropy =    14.2935

     66  H    Isotropic =    32.5804   Anisotropy =    16.0358

     67  H    Isotropic =    32.8349   Anisotropy =    15.1943

     68  H    Isotropic =    32.3673   Anisotropy =    13.8673

     69  H    Isotropic =    32.5017   Anisotropy =    13.1162

     70  H    Isotropic =    33.0361   Anisotropy =    11.3015

     71  H    Isotropic =    32.5704   Anisotropy =    11.2650

     72  H    Isotropic =    32.0666   Anisotropy =    16.3815

     73  H    Isotropic =    32.0703   Anisotropy =    14.8563

     74  H    Isotropic =    30.4018   Anisotropy =    11.1534

     75  H    Isotropic =    31.2381   Anisotropy =    12.4423

     76  H    Isotropic =    30.5727   Anisotropy =     8.1417

     77  H    Isotropic =    30.4863   Anisotropy =    12.0082

     78  H    Isotropic =    30.4993   Anisotropy =    12.1630

     79  H    Isotropic =    31.7604   Anisotropy =    10.6482

     80  H    Isotropic =    30.6180   Anisotropy =    14.9858

     81  H    Isotropic =    30.8328   Anisotropy =    11.0405

     82  H    Isotropic =    30.1708   Anisotropy =    11.6807

     83  H    Isotropic =    29.8560   Anisotropy =    11.3053

     84  H    Isotropic =    25.4183   Anisotropy =    15.0976

     85  H    Isotropic =    25.6528   Anisotropy =     5.5813

     86  H    Isotropic =    26.5587   Anisotropy =     7.5766

     87  H    Isotropic =    31.1138   Anisotropy =    12.1262

     88  H    Isotropic =    32.1687   Anisotropy =    12.0165

     89  H    Isotropic =    32.9639   Anisotropy =    11.1748

     90  H    Isotropic =    32.3220   Anisotropy =    13.2368

     91  H    Isotropic =    32.6148   Anisotropy =    18.8829

     92  H    Isotropic =    30.9548   Anisotropy =    12.2080

     93  H    Isotropic =    30.9616   Anisotropy =    14.3642

     94  H    Isotropic =    32.3895   Anisotropy =    17.9074

     95  H    Isotropic =    32.6119   Anisotropy =    11.6278

     96  H    Isotropic =    32.6181   Anisotropy =    13.5275

     97  H    Isotropic =    32.4853   Anisotropy =    13.8815

     98  H    Isotropic =    31.7133   Anisotropy =    11.4557

     99  H    Isotropic =    32.8857   Anisotropy =    11.8785

    100  H    Isotropic =    31.0480   Anisotropy =    15.5846

    101  H    Isotropic =    31.5283   Anisotropy =     8.9782

    102  H    Isotropic =    31.6460   Anisotropy =    10.5253

    103  H    Isotropic =    32.2212   Anisotropy =    14.2965

    104  H    Isotropic =    31.1681   Anisotropy =    12.1158

    105  H    Isotropic =    30.5518   Anisotropy =    11.8241

    106  H    Isotropic =    30.4841   Anisotropy =    12.1785

    107  H    Isotropic =    30.6110   Anisotropy =     8.0677

    108  H    Isotropic =    30.9029   Anisotropy =    10.7068

    109  H    Isotropic =    30.6587   Anisotropy =    14.7800

    110  H    Isotropic =    31.8703   Anisotropy =    10.7208

 The electronic state is 1-A.
 Alpha  occ. eigenvalues --  -20.31379 -20.29766 -20.25278 -20.23774 -19.91694
 Alpha  occ. eigenvalues --  -15.47871 -15.33907 -15.32845 -15.29943 -11.17303
 Alpha  occ. eigenvalues --  -11.15663 -11.11065 -11.10280 -11.09892 -11.09378
 Alpha  occ. eigenvalues --  -11.09230 -11.08796 -11.08781 -11.08292 -11.07415
 Alpha  occ. eigenvalues --  -11.07301 -11.07150 -11.07016 -11.06879 -11.06544
 Alpha  occ. eigenvalues --  -11.06349 -11.06266 -11.05911 -11.05737 -11.05727
 Alpha  occ. eigenvalues --  -11.05515 -11.05232 -11.05130 -11.05074 -11.05006
 Alpha  occ. eigenvalues --  -11.04810 -11.04792 -11.03903 -11.03791 -11.03784
 Alpha  occ. eigenvalues --  -11.03517 -11.03469 -11.03336 -11.03174 -11.01493
 Alpha  occ. eigenvalues --  -11.01475 -11.01469 -11.01350 -11.01213 -11.01112
 Alpha  occ. eigenvalues --  -11.01054 -11.00983 -11.00974 -11.00697  -1.38564
 Alpha  occ. eigenvalues --   -1.37043  -1.28451  -1.28267  -1.26729  -1.21391
 Alpha  occ. eigenvalues --   -1.21073  -1.18869  -1.12088  -1.08912  -1.08350
 Alpha  occ. eigenvalues --   -1.07054  -1.06394  -1.04538  -1.03408  -1.00820
 Alpha  occ. eigenvalues --   -1.00031  -0.98798  -0.98179  -0.97633  -0.96716
 Alpha  occ. eigenvalues --   -0.96059  -0.94735  -0.93980  -0.93385  -0.92356
 Alpha  occ. eigenvalues --   -0.91974  -0.91279  -0.90826  -0.89386  -0.87891
 Alpha  occ. eigenvalues --   -0.86396  -0.84776  -0.83105  -0.82501  -0.81021
 Alpha  occ. eigenvalues --   -0.80838  -0.79052  -0.78977  -0.78196  -0.76735
 Alpha  occ. eigenvalues --   -0.76595  -0.74583  -0.73677  -0.72627  -0.72386
 Alpha  occ. eigenvalues --   -0.71343  -0.70499  -0.69755  -0.68954  -0.67059
 Alpha  occ. eigenvalues --   -0.65959  -0.64839  -0.64278  -0.63933  -0.63049
 Alpha  occ. eigenvalues --   -0.62974  -0.61965  -0.61839  -0.61667  -0.61062
 Alpha  occ. eigenvalues --   -0.60726  -0.59896  -0.59727  -0.59340  -0.59078
 Alpha  occ. eigenvalues --   -0.58460  -0.57958  -0.57851  -0.57553  -0.57481
 Alpha  occ. eigenvalues --   -0.57047  -0.56563  -0.56325  -0.55917  -0.55722
 Alpha  occ. eigenvalues --   -0.55313  -0.54898  -0.54543  -0.54027  -0.53886
 Alpha  occ. eigenvalues --   -0.53642  -0.53314  -0.53224  -0.52786  -0.52478
 Alpha  occ. eigenvalues --   -0.52238  -0.51382  -0.51179  -0.51024  -0.50635
 Alpha  occ. eigenvalues --   -0.50298  -0.49952  -0.49900  -0.48948  -0.48788
 Alpha  occ. eigenvalues --   -0.48372  -0.48037  -0.47627  -0.47225  -0.47110
 Alpha  occ. eigenvalues --   -0.46921  -0.46389  -0.46319  -0.46079  -0.45842
 Alpha  occ. eigenvalues --   -0.45328  -0.45224  -0.44675  -0.44601  -0.43823
 Alpha  occ. eigenvalues --   -0.43538  -0.43502  -0.42995  -0.42873  -0.42480
 Alpha  occ. eigenvalues --   -0.42432  -0.41843  -0.41282  -0.41134  -0.40550
 Alpha  occ. eigenvalues --   -0.40224  -0.39794  -0.39246  -0.38848  -0.37712
 Alpha  occ. eigenvalues --   -0.37509  -0.36957  -0.35585  -0.35515  -0.34685
 Alpha  occ. eigenvalues --   -0.33924  -0.33357  -0.32475  -0.32453  -0.31133
 Alpha  occ. eigenvalues --   -0.27165  -0.26683  -0.26141  -0.21130  -0.20015
 Alpha  occ. eigenvalues --   -0.15580  -0.15407
 Alpha virt. eigenvalues --    0.27224   0.28128   0.28292   0.28976   0.29709
 Alpha virt. eigenvalues --    0.31406   0.46517   0.47225   0.48819   0.49289
 Alpha virt. eigenvalues --    0.49430   0.50177   0.50685   0.51234   0.52541

 Mulliken charges:
               1
     1  C   -0.077427
     2  C    0.002686
     3  C   -0.061142
     4  C   -0.088829
     5  C    0.088975
     6  C   -0.014277
     7  N   -0.282600
     8  C    0.015100
     9  C    0.129772
    10  C    0.040790
    11  C   -0.115585
    12  C   -0.107268
    13  C    0.041182
    14  N   -0.293669
    15  C   -0.011806
    16  C   -0.095680
    17  C   -0.100428
    18  C   -0.099143
    19  C   -0.013621
    20  C   -0.104195
    21  C   -0.063932
    22  C    0.318264
    23  O   -0.274952
    24  O   -0.255661
    25  C   -0.055181
    26  C   -0.079307
    27  C   -0.109854
    28  C   -0.001328
    29  C   -0.071852
    30  C   -0.062753
    31  C   -0.092978
    32  C    0.087806
    33  C   -0.015169
    34  N   -0.287555
    35  C    0.021186
    36  C    0.128682
    37  C    0.040955
    38  C   -0.115668
    39  C   -0.105186
    40  C    0.028081
    41  N   -0.085260
    42  C   -0.007713
    43  C   -0.110793
    44  C   -0.102206
    45  C   -0.106420
    46  C   -0.012102
    47  C   -0.111617
    48  C   -0.067190
    49  C    0.320470
    50  O   -0.278540
    51  O   -0.254165
    52  C   -0.055736
    53  C   -0.079098
    54  O   -0.454105
    55  H    0.058039
    56  H    0.056711
    57  H    0.059113
    58  H    0.041106
    59  H    0.058476
    60  H    0.049364
    61  H    0.047212
    62  H    0.045207
    63  H    0.037308
    64  H    0.061179
    65  H    0.056733
    66  H    0.048448
    67  H    0.043894
    68  H    0.050941
    69  H    0.064844
    70  H    0.058351
    71  H    0.040110
    72  H    0.061500
    73  H    0.047449
    74  H    0.079673
    75  H    0.062965
    76  H    0.073951
    77  H    0.076474
    78  H    0.071103
    79  H    0.055960
    80  H    0.071160
    81  H    0.074859
    82  H    0.058366
    83  H    0.063251
    84  H    0.092735
    85  H    0.055822
    86  H    0.056875
    87  H    0.085611
    88  H    0.052714
    89  H    0.056926
    90  H    0.051775
    91  H    0.052950
    92  H    0.088817
    93  H    0.080814
    94  H    0.065606
    95  H    0.057306
    96  H    0.056666
    97  H    0.057332
    98  H    0.083066
    99  H    0.071082
   100  H    0.089245
   101  H    0.067872
   102  H    0.066296
   103  H    0.055016
   104  H    0.067084
   105  H    0.073132
   106  H    0.078962
   107  H    0.075872
   108  H    0.075573
   109  H    0.073557
   110  H    0.055591
 Sum of Mulliken charges =  -0.00000

 Dipole moment (field-independent basis, Debye):
    X=             -2.8442    Y=             -3.9042    Z=             -1.1796  Tot=              4.9723
 Quadrupole moment (field-independent basis, Debye-Ang):
   XX=           -289.5159   YY=           -299.1021   ZZ=           -299.2647
   XY=             12.9294   XZ=             16.3218   YZ=            -11.7202

 Summary of Natural Population Analysis:

                                       Natural Population
                Natural  -----------------------------------------------
    Atom  No    Charge         Core      Valence    Rydberg      Total
 -----------------------------------------------------------------------
      C    1   -0.06088      1.99992     4.06095    0.00000     6.06088
      C    2    0.01804      1.99990     3.98205    0.00000     5.98196
      C    3   -0.03359      1.99994     4.03365    0.00000     6.03359
      C    4   -0.08587      1.99993     4.08594    0.00000     6.08587
      C    5    0.11247      1.99985     3.88768    0.00000     5.88753
      C    6   -0.02398      1.99990     4.02408    0.00000     6.02398
      N    7   -0.27148      1.99998     5.27150    0.00000     7.27148
      C    8    0.01505      1.99996     3.98499    0.00000     5.98495
      C    9    0.17376      1.99996     3.82628    0.00000     5.82624
      C   10    0.07297      1.99994     3.92709    0.00000     5.92703
      C   11   -0.08545      1.99993     4.08551    0.00000     6.08545
      C   12   -0.07719      1.99996     4.07723    0.00000     6.07719
      C   13    0.06275      1.99998     3.93728    0.00000     5.93725
      N   14   -0.28366      1.99999     5.28368    0.00000     7.28366
      C   15    0.04292      1.99994     3.95714    0.00000     5.95708
      C   16   -0.05873      1.99996     4.05878    0.00000     6.05873
      C   17   -0.06423      1.99995     4.06428    0.00000     6.06423
      C   18   -0.06619      1.99994     4.06625    0.00000     6.06619
      C   19    0.04032      1.99995     3.95973    0.00000     5.95968
      C   20   -0.06644      1.99992     4.06652    0.00000     6.06644
      C   21   -0.08018      1.99994     4.08024    0.00000     6.08018
      C   22    0.40064      1.99991     3.59945    0.00000     5.59936
      O   23   -0.30901      1.99999     6.30902    0.00000     8.30901
      O   24   -0.26736      1.99999     6.26736    0.00000     8.26736
      C   25    0.03520      1.99984     3.96496    0.00000     5.96480
      C   26   -0.01711      1.99992     4.01719    0.00000     6.01711
      C   27   -0.08678      1.99995     4.08683    0.00000     6.08678
      C   28    0.01174      1.99991     3.98836    0.00000     5.98826
      C   29   -0.05059      1.99993     4.05067    0.00000     6.05059
      C   30   -0.03358      1.99994     4.03363    0.00000     6.03358
      C   31   -0.09136      1.99993     4.09143    0.00000     6.09136
      C   32    0.11165      1.99985     3.88849    0.00000     5.88835
      C   33   -0.02973      1.99990     4.02984    0.00000     6.02973
      N   34   -0.27621      1.99998     5.27623    0.00000     7.27621
      C   35    0.02225      1.99996     3.97779    0.00000     5.97775
      C   36    0.17158      1.99996     3.82846    0.00000     5.82842
      C   37    0.07316      1.99991     3.92692    0.00000     5.92684
      C   38   -0.08604      1.99994     4.08611    0.00000     6.08604
      C   39   -0.07307      1.99995     4.07312    0.00000     6.07307
      C   40    0.04991      1.99998     3.95011    0.00000     5.95009
      N   41    0.02672      1.99999     4.97329    0.00000     6.97328
      C   42    0.04347      1.99991     3.95662    0.00000     5.95653
      C   43   -0.08115      1.99997     4.08118    0.00000     6.08115
      C   44   -0.06981      1.99996     4.06985    0.00000     6.06981
      C   45   -0.08068      1.99994     4.08073    0.00000     6.08068
      C   46    0.03839      1.99992     3.96169    0.00000     5.96161
      C   47   -0.07537      1.99992     4.07544    0.00000     6.07537
      C   48   -0.08605      1.99995     4.08611    0.00000     6.08605
      C   49    0.40376      1.99991     3.59633    0.00000     5.59624
      O   50   -0.31289      1.99999     6.31291    0.00000     8.31289
      O   51   -0.26553      1.99999     6.26553    0.00000     8.26553
      C   52    0.03481      1.99984     3.96535    0.00000     5.96519
      C   53   -0.01618      1.99992     4.01626    0.00000     6.01618
      O   54   -0.50516      2.00000     6.50516    0.00000     8.50516
      H   55    0.03290      0.00000     0.96710    0.00000     0.96710
      H   56    0.02936      0.00000     0.97064    0.00000     0.97064
      H   57    0.03492      0.00000     0.96508    0.00000     0.96508
      H   58    0.01077      0.00000     0.98923    0.00000     0.98923
      H   59    0.03510      0.00000     0.96490    0.00000     0.96490
      H   60    0.02730      0.00000     0.97270    0.00000     0.97270
      H   61    0.02697      0.00000     0.97303    0.00000     0.97303
      H   62    0.02513      0.00000     0.97487    0.00000     0.97487
      H   63    0.00980      0.00000     0.99020    0.00000     0.99020
      H   64    0.03516      0.00000     0.96484    0.00000     0.96484
      H   65    0.03463      0.00000     0.96537    0.00000     0.96537
      H   66    0.02725      0.00000     0.97275    0.00000     0.97275
      H   67    0.02253      0.00000     0.97747    0.00000     0.97747
      H   68    0.02936      0.00000     0.97064    0.00000     0.97064
      H   69    0.04048      0.00000     0.95952    0.00000     0.95952
      H   70    0.03631      0.00000     0.96369    0.00000     0.96369
      H   71    0.01239      0.00000     0.98761    0.00000     0.98761
      H   72    0.03515      0.00000     0.96485    0.00000     0.96485
      H   73    0.02456      0.00000     0.97544    0.00000     0.97544
      H   74    0.05309      0.00000     0.94691    0.00000     0.94691
      H   75    0.03987      0.00000     0.96013    0.00000     0.96013
      H   76    0.04258      0.00000     0.95742    0.00000     0.95742
      H   77    0.04547      0.00000     0.95453    0.00000     0.95453
      H   78    0.03965      0.00000     0.96035    0.00000     0.96035
      H   79    0.03049      0.00000     0.96951    0.00000     0.96951
      H   80    0.04692      0.00000     0.95308    0.00000     0.95308
      H   81    0.05060      0.00000     0.94940    0.00000     0.94940
      H   82    0.03965      0.00000     0.96035    0.00000     0.96035
      H   83    0.04423      0.00000     0.95577    0.00000     0.95577
      H   84    0.06349      0.00000     0.93651    0.00000     0.93651
      H   85    0.02873      0.00000     0.97127    0.00000     0.97127
      H   86    0.03319      0.00000     0.96681    0.00000     0.96681
      H   87    0.04969      0.00000     0.95031    0.00000     0.95031
      H   88    0.03035      0.00000     0.96965    0.00000     0.96965
      H   89    0.03373      0.00000     0.96627    0.00000     0.96627
      H   90    0.03045      0.00000     0.96955    0.00000     0.96955
      H   91    0.03133      0.00000     0.96867    0.00000     0.96867
      H   92    0.05712      0.00000     0.94288    0.00000     0.94288
      H   93    0.05022      0.00000     0.94978    0.00000     0.94978
      H   94    0.04589      0.00000     0.95411    0.00000     0.95411
      H   95    0.03665      0.00000     0.96335    0.00000     0.96335
      H   96    0.03557      0.00000     0.96443    0.00000     0.96443
      H   97    0.03639      0.00000     0.96361    0.00000     0.96361
      H   98    0.05989      0.00000     0.94011    0.00000     0.94011
      H   99    0.04809      0.00000     0.95191    0.00000     0.95191
      H  100    0.05841      0.00000     0.94159    0.00000     0.94159
      H  101    0.03598      0.00000     0.96402    0.00000     0.96402
      H  102    0.04118      0.00000     0.95882    0.00000     0.95882
      H  103    0.03289      0.00000     0.96711    0.00000     0.96711
      H  104    0.04434      0.00000     0.95566    0.00000     0.95566
      H  105    0.04147      0.00000     0.95853    0.00000     0.95853
      H  106    0.04771      0.00000     0.95229    0.00000     0.95229
      H  107    0.04423      0.00000     0.95577    0.00000     0.95577
      H  108    0.05113      0.00000     0.94887    0.00000     0.94887
      H  109    0.04908      0.00000     0.95092    0.00000     0.95092
      H  110    0.03013      0.00000     0.96987    0.00000     0.96987
 =======================================================================
   * Total *   -0.00000    107.99669   286.00331    0.00000   394.00000

 Normal termination of Gaussian 16 at Thu May 30 08:51:12 2024.
