 Gaussian 16, Revision B.01,
 Gaussian 16:  ES64L-G16RevB.01 20-Dec-2017

 ----------------------------------------------
 # nmr=giao hf/sto-3g pop=nbo geom=connectivity
 ----------------------------------------------

 ------------------
 pleiokomenine_C_1a
 ------------------
 Symbolic Z-matrix:
 Charge =  0 Multiplicity = 1

                         Standard orientation:
 ---------------------------------------------------------------------
 Center     Atomic      Atomic             Coordinates (Angstroms)
 Number     Number       Type             X           Y           Z
 ---------------------------------------------------------------------
      1          6           0        1.670714   -1.532074   -1.423106
      2          6           0        1.463393   -2.807098   -1.968539
      3          6           0        2.520207   -3.741008   -1.945009
      4          6           0        3.766412   -3.420441   -1.384441
      5          6           0        3.959043   -2.158513   -0.849343
      6          6           0        2.899017   -1.238733   -0.853532
      7          7           0        5.137487   -1.615931   -0.268879
      8          6           0        3.320439   -0.002577   -0.102211
      9          6           0        4.875176   -0.152439   -0.324852
     10          6           0        2.867876    1.386481   -0.573082
     11          6           0        5.239259    0.389942   -1.775348
     12          6           0        4.892289    1.877904   -1.916758
     13          6           0        4.112005    2.333800   -0.667811
     14          7           0        1.830520    1.784835    0.382364
     15          6           0        1.477874    3.196114    0.353985
     16          6           0        2.664685    4.158280    0.313175
     17          6           0        3.644435    3.790378   -0.801332
     18          6           0        2.730600   -0.140234    1.323507
     19          6           0        2.166424    1.228500    1.681935
     20          6           0        5.114602    2.181531    0.526893
     21          6           0        5.688834    0.741291    0.627699
     22          6           0        5.819956    0.272664    2.066156
     23          8           0        5.267905    0.790668    3.029179
     24          8           0        6.703748   -0.760871    2.156965
     25          6           0        6.856933   -1.285602    3.475248
     26          6           0        6.402546   -2.173113   -0.721073
     27          6           0        0.122952   -3.174104   -2.574711
     28          6           0       -1.041166   -2.949915   -1.631578
     29          6           0       -1.745910   -1.739071   -1.667373
     30          6           0       -1.364015   -3.912270   -0.653886
     31          6           0       -2.347941   -3.662829    0.310832
     32          6           0       -2.989017   -2.435310    0.312373
     33          6           0       -2.706901   -1.499502   -0.698065
     34          7           0       -3.909304   -1.928715    1.273390
     35          6           0       -3.570950   -0.283455   -0.483149
     36          6           0       -3.806378   -0.462611    1.066826
     37          6           0       -2.994652    1.106521   -0.747470
     38          6           0       -2.535186    0.103148    1.839103
     39          6           0       -2.356792    1.607707    1.579260
     40          6           0       -3.318158    2.046287    0.449495
     41          7           0       -3.494605    1.567943   -2.123496
     42          6           0       -4.390250    2.779450   -2.042779
     43          6           0       -3.791766    3.921231   -1.232494
     44          6           0       -3.059203    3.497871    0.041723
     45          6           0       -4.756011   -0.368581   -1.452031
     46          6           0       -4.261814    0.384641   -2.673611
     47          6           0       -4.757188    1.843914    1.042795
     48          6           0       -4.969296    0.400184    1.589986
     49          6           0       -6.379439   -0.119174    1.351025
     50          8           0       -7.193127    0.390006    0.590089
     51          8           0       -6.652951   -1.175471    2.164768
     52          6           0       -7.953958   -1.735266    1.986051
     53          6           0       -3.816834   -2.502127    2.610290
     54          8           0       -2.436259    1.853630   -2.949126
     55          1           0        0.880715   -0.786986   -1.404869
     56          1           0        2.376501   -4.735250   -2.362471
     57          1           0        4.556555   -4.162104   -1.376549
     58          1           0        2.392062    1.329426   -1.561473
     59          1           0        6.309054    0.254644   -1.980359
     60          1           0        4.720669   -0.172201   -2.561926
     61          1           0        5.810480    2.466671   -2.036622
     62          1           0        4.306287    2.033739   -2.831085
     63          1           0        0.868012    3.367531   -0.542709
     64          1           0        0.826099    3.445391    1.200290
     65          1           0        2.296940    5.177703    0.146868
     66          1           0        3.173725    4.168119    1.283111
     67          1           0        3.147474    3.934871   -1.769522
     68          1           0        4.499280    4.476870   -0.783647
     69          1           0        1.889118   -0.848668    1.337383
     70          1           0        3.430687   -0.519943    2.066881
     71          1           0        1.277102    1.127787    2.313499
     72          1           0        2.890777    1.829273    2.233930
     73          1           0        5.958866    2.869336    0.373545
     74          1           0        4.667184    2.511943    1.464486
     75          1           0        6.728469    0.797220    0.269661
     76          1           0        5.895599   -1.634467    3.865649
     77          1           0        7.538228   -2.139316    3.422680
     78          1           0        7.295209   -0.532340    4.137116
     79          1           0        6.478123   -2.189685   -1.814193
     80          1           0        6.526340   -3.194635   -0.345818
     81          1           0        7.243453   -1.588019   -0.336376
     82          1           0       -0.017679   -2.591544   -3.494365
     83          1           0        0.119560   -4.225774   -2.889153
     84          1           0       -1.504080   -0.981194   -2.409807
     85          1           0       -0.817138   -4.852166   -0.618432
     86          1           0       -2.558235   -4.412848    1.064300
     87          1           0       -1.903167    1.053589   -0.872024
     88          1           0       -1.615990   -0.419812    1.546604
     89          1           0       -2.631316   -0.061104    2.920042
     90          1           0       -2.557019    2.173302    2.498083
     91          1           0       -1.311566    1.810463    1.316247
     92          1           0       -4.564755    3.098272   -3.078051
     93          1           0       -5.352115    2.452975   -1.643586
     94          1           0       -3.092922    4.486271   -1.862130
     95          1           0       -4.594201    4.624038   -0.977010
     96          1           0       -1.982619    3.633943   -0.130539
     97          1           0       -3.314017    4.184026    0.858859
     98          1           0       -5.065986   -1.388061   -1.705136
     99          1           0       -5.633703    0.158262   -1.090807
    100          1           0       -5.064408    0.748853   -3.322000
    101          1           0       -3.561759   -0.207081   -3.271713
    102          1           0       -5.529076    2.112036    0.322258
    103          1           0       -4.903080    2.546134    1.875837
    104          1           0       -4.900170    0.473006    2.686590
    105          1           0       -8.723174   -1.008690    2.265121
    106          1           0       -8.041958   -2.603957    2.644468
    107          1           0       -8.091077   -2.069581    0.952761
    108          1           0       -4.429074   -1.936711    3.319285
    109          1           0       -4.194409   -3.530303    2.610930
    110          1           0       -2.788154   -2.504606    2.988610
 ---------------------------------------------------------------------

 SCF Done:  E(RHF) =  -2300.22002196     A.U. after   16 cycles

      1  C    Isotropic =   124.4796   Anisotropy =   153.5150

      2  C    Isotropic =   120.2201   Anisotropy =   156.6111

      3  C    Isotropic =   119.4581   Anisotropy =   148.1399

      4  C    Isotropic =   133.7591   Anisotropy =   141.8401

      5  C    Isotropic =   109.2700   Anisotropy =   126.2867

      6  C    Isotropic =   117.7386   Anisotropy =   139.3505

      7  N    Isotropic =   273.9275   Anisotropy =    81.9880

      8  C    Isotropic =   196.2660   Anisotropy =    13.7264

      9  C    Isotropic =   180.9210   Anisotropy =    45.2744

     10  C    Isotropic =   190.3890   Anisotropy =    30.3098

     11  C    Isotropic =   213.7173   Anisotropy =    19.0500

     12  C    Isotropic =   212.8380   Anisotropy =    21.2206

     13  C    Isotropic =   213.6076   Anisotropy =     7.8462

     14  N    Isotropic =   303.3961   Anisotropy =    54.8872

     15  C    Isotropic =   205.2198   Anisotropy =    32.4771

     16  C    Isotropic =   224.1576   Anisotropy =     9.6778

     17  C    Isotropic =   215.2871   Anisotropy =    19.3776

     18  C    Isotropic =   210.6281   Anisotropy =    35.9044

     19  C    Isotropic =   200.1254   Anisotropy =    40.2890

     20  C    Isotropic =   212.2035   Anisotropy =    21.2918

     21  C    Isotropic =   209.0094   Anisotropy =     9.9030

     22  C    Isotropic =    96.3057   Anisotropy =    98.3415

     23  O    Isotropic =  -134.0361   Anisotropy =   887.2903

     24  O    Isotropic =   283.9672   Anisotropy =   140.0886

     25  C    Isotropic =   197.4191   Anisotropy =    57.2999

     26  C    Isotropic =   209.9078   Anisotropy =    42.0521

     27  C    Isotropic =   206.3252   Anisotropy =    17.4792

     28  C    Isotropic =   119.4198   Anisotropy =   161.5666

     29  C    Isotropic =   122.7869   Anisotropy =   150.0904

     30  C    Isotropic =   118.6281   Anisotropy =   156.7926

     31  C    Isotropic =   133.5299   Anisotropy =   144.5379

     32  C    Isotropic =   107.8627   Anisotropy =   129.2675

     33  C    Isotropic =   120.3960   Anisotropy =   138.0643

     34  N    Isotropic =   273.0054   Anisotropy =    80.0930

     35  C    Isotropic =   197.4032   Anisotropy =    14.0131

     36  C    Isotropic =   180.4584   Anisotropy =    44.4046

     37  C    Isotropic =   175.3283   Anisotropy =    55.7674

     38  C    Isotropic =   213.4244   Anisotropy =    20.4458

     39  C    Isotropic =   212.0112   Anisotropy =    21.3249

     40  C    Isotropic =   210.9485   Anisotropy =     8.5278

     41  N    Isotropic =   226.8710   Anisotropy =    55.9099

     42  C    Isotropic =   196.6300   Anisotropy =    47.1431

     43  C    Isotropic =   221.6175   Anisotropy =    11.5787

     44  C    Isotropic =   217.7071   Anisotropy =    19.9371

     45  C    Isotropic =   214.1158   Anisotropy =    28.8618

     46  C    Isotropic =   186.7824   Anisotropy =    61.9498

     47  C    Isotropic =   212.0138   Anisotropy =    24.4531

     48  C    Isotropic =   208.3232   Anisotropy =    12.3302

     49  C    Isotropic =    95.9664   Anisotropy =    98.2101

     50  O    Isotropic =  -131.2511   Anisotropy =   881.2444

     51  O    Isotropic =   282.9524   Anisotropy =   138.4901

     52  C    Isotropic =   197.2058   Anisotropy =    58.3497

     53  C    Isotropic =   209.4131   Anisotropy =    41.2098

     54  O    Isotropic =    27.5484   Anisotropy =   454.9578

     55  H    Isotropic =    26.0030   Anisotropy =    16.4363

     56  H    Isotropic =    25.6969   Anisotropy =     6.6034

     57  H    Isotropic =    26.5732   Anisotropy =     7.8796

     58  H    Isotropic =    31.3596   Anisotropy =     8.8707

     59  H    Isotropic =    32.1774   Anisotropy =    14.1365

     60  H    Isotropic =    32.8705   Anisotropy =     8.4568

     61  H    Isotropic =    32.3483   Anisotropy =    15.5380

     62  H    Isotropic =    32.4818   Anisotropy =    12.9593

     63  H    Isotropic =    31.5521   Anisotropy =    15.2506

     64  H    Isotropic =    31.8949   Anisotropy =    14.1524

     65  H    Isotropic =    32.5980   Anisotropy =    16.9386

     66  H    Isotropic =    32.5629   Anisotropy =    10.7241

     67  H    Isotropic =    32.5096   Anisotropy =    12.3963

     68  H    Isotropic =    32.4732   Anisotropy =    15.2167

     69  H    Isotropic =    32.9278   Anisotropy =    12.8313

     70  H    Isotropic =    33.1384   Anisotropy =    11.4171

     71  H    Isotropic =    32.1574   Anisotropy =    14.5927

     72  H    Isotropic =    32.0327   Anisotropy =     9.3506

     73  H    Isotropic =    32.2249   Anisotropy =    15.1264

     74  H    Isotropic =    31.4139   Anisotropy =     8.8215

     75  H    Isotropic =    31.2140   Anisotropy =    13.0833

     76  H    Isotropic =    30.6976   Anisotropy =     7.4628

     77  H    Isotropic =    30.5638   Anisotropy =    12.2501

     78  H    Isotropic =    30.5998   Anisotropy =    11.7368

     79  H    Isotropic =    31.8831   Anisotropy =    11.9493

     80  H    Isotropic =    30.7348   Anisotropy =    14.6118

     81  H    Isotropic =    30.9118   Anisotropy =    11.0493

     82  H    Isotropic =    29.9411   Anisotropy =     8.2822

     83  H    Isotropic =    29.8257   Anisotropy =    12.7230

     84  H    Isotropic =    24.9429   Anisotropy =    12.9712

     85  H    Isotropic =    25.8885   Anisotropy =     6.9361

     86  H    Isotropic =    26.6267   Anisotropy =     7.7210

     87  H    Isotropic =    30.1312   Anisotropy =    10.7792

     88  H    Isotropic =    32.8348   Anisotropy =    11.0491

     89  H    Isotropic =    32.1698   Anisotropy =    12.0863

     90  H    Isotropic =    32.1673   Anisotropy =    13.3132

     91  H    Isotropic =    31.9369   Anisotropy =    19.7928

     92  H    Isotropic =    30.7962   Anisotropy =    14.6578

     93  H    Isotropic =    31.7088   Anisotropy =     8.2389

     94  H    Isotropic =    31.1644   Anisotropy =    15.2647

     95  H    Isotropic =    32.1488   Anisotropy =    16.5251

     96  H    Isotropic =    31.7583   Anisotropy =    15.7883

     97  H    Isotropic =    32.2450   Anisotropy =    13.7982

     98  H    Isotropic =    32.7833   Anisotropy =    12.7307

     99  H    Isotropic =    32.5210   Anisotropy =    11.0025

    100  H    Isotropic =    31.1257   Anisotropy =    14.0163

    101  H    Isotropic =    30.2768   Anisotropy =    11.0159

    102  H    Isotropic =    31.4706   Anisotropy =    10.3155

    103  H    Isotropic =    32.0334   Anisotropy =    14.4033

    104  H    Isotropic =    31.1615   Anisotropy =    11.8087

    105  H    Isotropic =    30.5384   Anisotropy =    11.8806

    106  H    Isotropic =    30.4914   Anisotropy =    12.0021

    107  H    Isotropic =    30.5890   Anisotropy =     8.2278

    108  H    Isotropic =    30.9031   Anisotropy =    10.7809

    109  H    Isotropic =    30.7506   Anisotropy =    14.7168

    110  H    Isotropic =    31.9731   Anisotropy =    10.3472

 The electronic state is 1-A.
 Alpha  occ. eigenvalues --  -20.31122 -20.30368 -20.25075 -20.24315 -19.91290
 Alpha  occ. eigenvalues --  -15.47888 -15.33915 -15.33116 -15.30100 -11.17103
 Alpha  occ. eigenvalues --  -11.16233 -11.10905 -11.10349 -11.10046 -11.09015
 Alpha  occ. eigenvalues --  -11.08983 -11.08436 -11.08147 -11.08036 -11.07570
 Alpha  occ. eigenvalues --  -11.07048 -11.06884 -11.06875 -11.06545 -11.06424
 Alpha  occ. eigenvalues --  -11.06053 -11.05869 -11.05775 -11.05393 -11.05316
 Alpha  occ. eigenvalues --  -11.05225 -11.05164 -11.05054 -11.04867 -11.04672
 Alpha  occ. eigenvalues --  -11.04418 -11.04243 -11.04009 -11.03983 -11.03684
 Alpha  occ. eigenvalues --  -11.03509 -11.03478 -11.03446 -11.03358 -11.01914
 Alpha  occ. eigenvalues --  -11.01835 -11.01790 -11.01692 -11.01604 -11.01450
 Alpha  occ. eigenvalues --  -11.01241 -11.01114 -11.00930 -11.00823  -1.38336
 Alpha  occ. eigenvalues --   -1.37580  -1.28161  -1.27724  -1.27382  -1.21298
 Alpha  occ. eigenvalues --   -1.20979  -1.18418  -1.11638  -1.09250  -1.08771
 Alpha  occ. eigenvalues --   -1.07324  -1.06080  -1.04465  -1.03328  -1.00618
 Alpha  occ. eigenvalues --   -1.00063  -0.98731  -0.98141  -0.97563  -0.96543
 Alpha  occ. eigenvalues --   -0.96370  -0.94088  -0.94036  -0.93677  -0.92300
 Alpha  occ. eigenvalues --   -0.92058  -0.91351  -0.91240  -0.89290  -0.87811
 Alpha  occ. eigenvalues --   -0.86477  -0.84796  -0.82727  -0.82134  -0.81534
 Alpha  occ. eigenvalues --   -0.80428  -0.79190  -0.78833  -0.78047  -0.77247
 Alpha  occ. eigenvalues --   -0.76841  -0.74552  -0.73693  -0.72820  -0.71919
 Alpha  occ. eigenvalues --   -0.70909  -0.69913  -0.69194  -0.69039  -0.66325
 Alpha  occ. eigenvalues --   -0.65572  -0.65130  -0.64562  -0.64298  -0.63506
 Alpha  occ. eigenvalues --   -0.63131  -0.61847  -0.61649  -0.61505  -0.60823
 Alpha  occ. eigenvalues --   -0.60531  -0.60315  -0.59342  -0.59237  -0.58480
 Alpha  occ. eigenvalues --   -0.58228  -0.58155  -0.57903  -0.57709  -0.57312
 Alpha  occ. eigenvalues --   -0.57047  -0.56608  -0.56419  -0.56210  -0.55451
 Alpha  occ. eigenvalues --   -0.55030  -0.54950  -0.54500  -0.54331  -0.54228
 Alpha  occ. eigenvalues --   -0.53452  -0.53365  -0.52984  -0.52540  -0.51946
 Alpha  occ. eigenvalues --   -0.51436  -0.51349  -0.51023  -0.50531  -0.50426
 Alpha  occ. eigenvalues --   -0.50304  -0.49671  -0.49452  -0.49012  -0.48905
 Alpha  occ. eigenvalues --   -0.48730  -0.48045  -0.47885  -0.47531  -0.47391
 Alpha  occ. eigenvalues --   -0.46742  -0.46495  -0.46020  -0.45598  -0.45330
 Alpha  occ. eigenvalues --   -0.45212  -0.44490  -0.44406  -0.44298  -0.44004
 Alpha  occ. eigenvalues --   -0.43979  -0.43387  -0.43122  -0.42423  -0.42279
 Alpha  occ. eigenvalues --   -0.42014  -0.41811  -0.41713  -0.41287  -0.41058
 Alpha  occ. eigenvalues --   -0.40765  -0.40114  -0.39031  -0.38758  -0.38001
 Alpha  occ. eigenvalues --   -0.37448  -0.36934  -0.36063  -0.35712  -0.34569
 Alpha  occ. eigenvalues --   -0.33851  -0.33711  -0.33069  -0.32391  -0.31694
 Alpha  occ. eigenvalues --   -0.27139  -0.26616  -0.25630  -0.21336  -0.20247
 Alpha  occ. eigenvalues --   -0.14935  -0.14673
 Alpha virt. eigenvalues --    0.26915   0.27277   0.27955   0.29381   0.29984
 Alpha virt. eigenvalues --    0.30731   0.46643   0.47038   0.48718   0.48775
 Alpha virt. eigenvalues --    0.49465   0.50031   0.50733   0.51114   0.52616

 Mulliken charges:
               1
     1  C   -0.074026
     2  C    0.000385
     3  C   -0.062681
     4  C   -0.090530
     5  C    0.088243
     6  C   -0.012707
     7  N   -0.286543
     8  C    0.018006
     9  C    0.127791
    10  C    0.040599
    11  C   -0.114859
    12  C   -0.105613
    13  C    0.028136
    14  N   -0.292111
    15  C   -0.015750
    16  C   -0.107864
    17  C   -0.102127
    18  C   -0.104824
    19  C   -0.019341
    20  C   -0.110496
    21  C   -0.066445
    22  C    0.319632
    23  O   -0.277710
    24  O   -0.255252
    25  C   -0.055715
    26  C   -0.078969
    27  C   -0.109623
    28  C    0.001909
    29  C   -0.074545
    30  C   -0.060066
    31  C   -0.089784
    32  C    0.089706
    33  C   -0.019067
    34  N   -0.285167
    35  C    0.014449
    36  C    0.128189
    37  C    0.033443
    38  C   -0.115751
    39  C   -0.105760
    40  C    0.032710
    41  N   -0.074012
    42  C   -0.008145
    43  C   -0.101577
    44  C   -0.101987
    45  C   -0.120423
    46  C   -0.012965
    47  C   -0.111389
    48  C   -0.066062
    49  C    0.321137
    50  O   -0.279274
    51  O   -0.254539
    52  C   -0.055253
    53  C   -0.079819
    54  O   -0.456155
    55  H    0.069785
    56  H    0.054563
    57  H    0.056976
    58  H    0.060915
    59  H    0.050082
    60  H    0.055446
    61  H    0.047650
    62  H    0.052353
    63  H    0.059058
    64  H    0.057667
    65  H    0.053494
    66  H    0.049238
    67  H    0.052674
    68  H    0.050611
    69  H    0.062465
    70  H    0.062693
    71  H    0.053723
    72  H    0.051250
    73  H    0.050807
    74  H    0.067131
    75  H    0.064565
    76  H    0.074333
    77  H    0.076924
    78  H    0.071891
    79  H    0.055406
    80  H    0.071198
    81  H    0.075696
    82  H    0.062296
    83  H    0.057217
    84  H    0.076002
    85  H    0.058629
    86  H    0.059277
    87  H    0.095575
    88  H    0.059520
    89  H    0.052239
    90  H    0.049778
    91  H    0.063529
    92  H    0.086721
    93  H    0.060311
    94  H    0.075494
    95  H    0.058632
    96  H    0.065402
    97  H    0.054053
    98  H    0.071528
    99  H    0.069958
   100  H    0.073914
   101  H    0.092755
   102  H    0.064800
   103  H    0.055378
   104  H    0.066664
   105  H    0.072948
   106  H    0.078384
   107  H    0.075689
   108  H    0.076372
   109  H    0.072231
   110  H    0.056699
 Sum of Mulliken charges =  -0.00000

 Dipole moment (field-independent basis, Debye):
    X=             -0.4097    Y=             -0.3728    Z=              3.4131  Tot=              3.4578
 Quadrupole moment (field-independent basis, Debye-Ang):
   XX=           -269.2370   YY=           -294.3776   ZZ=           -306.9851
   XY=              0.5500   XZ=            -11.2619   YZ=              2.7579

 Summary of Natural Population Analysis:

                                       Natural Population
                Natural  -----------------------------------------------
    Atom  No    Charge         Core      Valence    Rydberg      Total
 -----------------------------------------------------------------------
      C    1   -0.05543      1.99993     4.05551    0.00000     6.05543
      C    2    0.01479      1.99990     3.98531    0.00000     5.98521
      C    3   -0.03458      1.99994     4.03463    0.00000     6.03458
      C    4   -0.08744      1.99993     4.08751    0.00000     6.08744
      C    5    0.11135      1.99985     3.88880    0.00000     5.88865
      C    6   -0.02439      1.99990     4.02449    0.00000     6.02439
      N    7   -0.27488      1.99998     5.27490    0.00000     7.27488
      C    8    0.01954      1.99996     3.98050    0.00000     5.98046
      C    9    0.17136      1.99996     3.82869    0.00000     5.82864
      C   10    0.07409      1.99993     3.92597    0.00000     5.92591
      C   11   -0.08505      1.99994     4.08512    0.00000     6.08505
      C   12   -0.07377      1.99996     4.07381    0.00000     6.07377
      C   13    0.05045      1.99998     3.94957    0.00000     5.94955
      N   14   -0.28050      1.99999     5.28051    0.00000     7.28050
      C   15    0.03779      1.99993     3.96228    0.00000     5.96221
      C   16   -0.07404      1.99997     4.07407    0.00000     6.07404
      C   17   -0.06847      1.99996     4.06851    0.00000     6.06847
      C   18   -0.07450      1.99995     4.07455    0.00000     6.07450
      C   19    0.03392      1.99994     3.96614    0.00000     5.96608
      C   20   -0.07365      1.99992     4.07373    0.00000     6.07365
      C   21   -0.08436      1.99994     4.08442    0.00000     6.08436
      C   22    0.40320      1.99991     3.59689    0.00000     5.59680
      O   23   -0.31195      1.99999     6.31196    0.00000     8.31195
      O   24   -0.26690      1.99999     6.26690    0.00000     8.26690
      C   25    0.03464      1.99984     3.96552    0.00000     5.96536
      C   26   -0.01641      1.99992     4.01649    0.00000     6.01641
      C   27   -0.08635      1.99995     4.08639    0.00000     6.08635
      C   28    0.01526      1.99990     3.98484    0.00000     5.98474
      C   29   -0.05479      1.99992     4.05486    0.00000     6.05479
      C   30   -0.03077      1.99994     4.03083    0.00000     6.03077
      C   31   -0.08740      1.99993     4.08746    0.00000     6.08740
      C   32    0.11422      1.99985     3.88593    0.00000     5.88578
      C   33   -0.03234      1.99990     4.03244    0.00000     6.03234
      N   34   -0.27374      1.99998     5.27376    0.00000     7.27374
      C   35    0.01272      1.99996     3.98733    0.00000     5.98728
      C   36    0.17161      1.99996     3.82843    0.00000     5.82839
      C   37    0.06459      1.99990     3.93551    0.00000     5.93541
      C   38   -0.08604      1.99994     4.08610    0.00000     6.08604
      C   39   -0.07315      1.99995     4.07320    0.00000     6.07315
      C   40    0.05528      1.99998     3.94475    0.00000     5.94472
      N   41    0.04025      1.99999     4.95975    0.00000     6.95975
      C   42    0.04552      1.99990     3.95458    0.00000     5.95448
      C   43   -0.07180      1.99996     4.07184    0.00000     6.07180
      C   44   -0.07087      1.99995     4.07092    0.00000     6.07087
      C   45   -0.09491      1.99995     4.09496    0.00000     6.09491
      C   46    0.03833      1.99992     3.96175    0.00000     5.96167
      C   47   -0.07391      1.99992     4.07399    0.00000     6.07391
      C   48   -0.08321      1.99994     4.08327    0.00000     6.08321
      C   49    0.40455      1.99991     3.59554    0.00000     5.59545
      O   50   -0.31393      1.99998     6.31395    0.00000     8.31393
      O   51   -0.26614      1.99999     6.26615    0.00000     8.26614
      C   52    0.03530      1.99984     3.96486    0.00000     5.96470
      C   53   -0.01702      1.99992     4.01709    0.00000     6.01702
      O   54   -0.50981      2.00000     6.50982    0.00000     8.50981
      H   55    0.04304      0.00000     0.95696    0.00000     0.95696
      H   56    0.02743      0.00000     0.97257    0.00000     0.97257
      H   57    0.03293      0.00000     0.96707    0.00000     0.96707
      H   58    0.02929      0.00000     0.97071    0.00000     0.97071
      H   59    0.02801      0.00000     0.97199    0.00000     0.97199
      H   60    0.03243      0.00000     0.96757    0.00000     0.96757
      H   61    0.02672      0.00000     0.97328    0.00000     0.97328
      H   62    0.03111      0.00000     0.96889    0.00000     0.96889
      H   63    0.03157      0.00000     0.96843    0.00000     0.96843
      H   64    0.03226      0.00000     0.96774    0.00000     0.96774
      H   65    0.03364      0.00000     0.96636    0.00000     0.96636
      H   66    0.02872      0.00000     0.97128    0.00000     0.97128
      H   67    0.03164      0.00000     0.96836    0.00000     0.96836
      H   68    0.02979      0.00000     0.97021    0.00000     0.97021
      H   69    0.04122      0.00000     0.95878    0.00000     0.95878
      H   70    0.04009      0.00000     0.95991    0.00000     0.95991
      H   71    0.02790      0.00000     0.97210    0.00000     0.97210
      H   72    0.02225      0.00000     0.97775    0.00000     0.97775
      H   73    0.02869      0.00000     0.97131    0.00000     0.97131
      H   74    0.04192      0.00000     0.95808    0.00000     0.95808
      H   75    0.04174      0.00000     0.95826    0.00000     0.95826
      H   76    0.04290      0.00000     0.95710    0.00000     0.95710
      H   77    0.04590      0.00000     0.95410    0.00000     0.95410
      H   78    0.04039      0.00000     0.95961    0.00000     0.95961
      H   79    0.03000      0.00000     0.97000    0.00000     0.97000
      H   80    0.04691      0.00000     0.95309    0.00000     0.95309
      H   81    0.05137      0.00000     0.94863    0.00000     0.94863
      H   82    0.04331      0.00000     0.95669    0.00000     0.95669
      H   83    0.03822      0.00000     0.96178    0.00000     0.96178
      H   84    0.04910      0.00000     0.95090    0.00000     0.95090
      H   85    0.03110      0.00000     0.96890    0.00000     0.96890
      H   86    0.03510      0.00000     0.96490    0.00000     0.96490
      H   87    0.05898      0.00000     0.94102    0.00000     0.94102
      H   88    0.03594      0.00000     0.96406    0.00000     0.96406
      H   89    0.02992      0.00000     0.97008    0.00000     0.97008
      H   90    0.02840      0.00000     0.97160    0.00000     0.97160
      H   91    0.04076      0.00000     0.95924    0.00000     0.95924
      H   92    0.05538      0.00000     0.94462    0.00000     0.94462
      H   93    0.02900      0.00000     0.97100    0.00000     0.97100
      H   94    0.05320      0.00000     0.94680    0.00000     0.94680
      H   95    0.03845      0.00000     0.96155    0.00000     0.96155
      H   96    0.04360      0.00000     0.95640    0.00000     0.95640
      H   97    0.03341      0.00000     0.96659    0.00000     0.96659
      H   98    0.05114      0.00000     0.94886    0.00000     0.94886
      H   99    0.04628      0.00000     0.95372    0.00000     0.95372
      H  100    0.04394      0.00000     0.95606    0.00000     0.95606
      H  101    0.05996      0.00000     0.94004    0.00000     0.94004
      H  102    0.03925      0.00000     0.96075    0.00000     0.96075
      H  103    0.03274      0.00000     0.96726    0.00000     0.96726
      H  104    0.04341      0.00000     0.95659    0.00000     0.95659
      H  105    0.04128      0.00000     0.95872    0.00000     0.95872
      H  106    0.04718      0.00000     0.95282    0.00000     0.95282
      H  107    0.04407      0.00000     0.95593    0.00000     0.95593
      H  108    0.05182      0.00000     0.94818    0.00000     0.94818
      H  109    0.04777      0.00000     0.95223    0.00000     0.95223
      H  110    0.03115      0.00000     0.96885    0.00000     0.96885
 =======================================================================
   * Total *   -0.00000    107.99666   286.00334    0.00000   394.00000

 Normal termination of Gaussian 16 at Thu May 30 08:55:09 2024.
