 Gaussian 16, Revision B.01,
 Gaussian 16:  ES64L-G16RevB.01 20-Dec-2017

 ----------------------------------------------
 # nmr=giao hf/sto-3g pop=nbo geom=connectivity
 ----------------------------------------------

 ------------------
 pleiokomenine_C_1a
 ------------------
 Symbolic Z-matrix:
 Charge =  0 Multiplicity = 1

                         Standard orientation:
 ---------------------------------------------------------------------
 Center     Atomic      Atomic             Coordinates (Angstroms)
 Number     Number       Type             X           Y           Z
 ---------------------------------------------------------------------
      1          6           0        2.411583   -0.052154   -1.444015
      2          6           0        1.199150   -0.753178   -1.499261
      3          6           0        0.994736   -1.857844   -0.643413
      4          6           0        1.986475   -2.283425    0.248831
      5          6           0        3.191593   -1.605916    0.278455
      6          6           0        3.384306   -0.484200   -0.554739
      7          7           0        4.344907   -1.896829    1.063532
      8          6           0        4.721317    0.125301   -0.209941
      9          6           0        5.412482   -1.185420    0.314912
     10          6           0        5.613716    0.762017   -1.275919
     11          6           0        5.836918   -2.088103   -0.932434
     12          6           0        6.782556   -1.343922   -1.876713
     13          6           0        7.000284    0.082832   -1.360356
     14          7           0        5.852191    2.116825   -0.778908
     15          6           0        6.471467    2.974289   -1.762368
     16          6           0        7.877724    2.412209   -2.032106
     17          6           0        7.884225    0.901262   -2.331689
     18          6           0        4.392756    1.303169    0.746350
     19          6           0        4.649606    2.547087   -0.107150
     20          6           0        7.637445   -0.042727    0.068801
     21          6           0        6.751548   -0.902919    1.029445
     22          6           0        6.682379   -0.319585    2.431723
     23          8           0        7.145880    0.761960    2.771925
     24          8           0        6.121407   -1.208336    3.298835
     25          6           0        5.991885   -0.723716    4.634640
     26          6           0        4.512719   -3.277282    1.489361
     27          6           0        0.101707   -0.311383   -2.441530
     28          6           0       -1.027495    0.422442   -1.754767
     29          6           0       -2.211139   -0.254883   -1.433483
     30          6           0       -0.883497    1.775974   -1.388069
     31          6           0       -1.908495    2.461137   -0.724189
     32          6           0       -3.083639    1.790462   -0.430254
     33          6           0       -3.216225    0.433037   -0.769658
     34          7           0       -4.247505    2.303342    0.200527
     35          6           0       -4.526814   -0.081881   -0.225549
     36          6           0       -5.279695    1.310302   -0.175966
     37          6           0       -5.376529   -1.080252   -1.030312
     38          6           0       -5.826335    1.644763   -1.632731
     39          6           0       -6.840721    0.591817   -2.101537
     40          6           0       -6.857643   -0.572569   -1.088830
     41          7           0       -5.165801   -2.425119   -0.356457
     42          6           0       -6.236036   -3.438257   -0.667932
     43          6           0       -7.659940   -2.917218   -0.652100
     44          6           0       -7.795672   -1.692653   -1.549314
     45          6           0       -4.196347   -0.818796    1.099003
     46          6           0       -5.016238   -2.102137    1.096746
     47          6           0       -7.386850    0.059103    0.244243
     48          6           0       -6.539567    1.272114    0.702708
     49          6           0       -6.331718    1.284337    2.206877
     50          8           0       -6.494655    0.315061    2.938532
     51          8           0       -6.011010    2.532704    2.643053
     52          6           0       -5.752516    2.615974    4.044628
     53          6           0       -4.483852    3.733345    0.071599
     54          8           0       -3.974524   -2.979896   -0.805999
     55          1           0        2.576908    0.822983   -2.063558
     56          1           0        0.044396   -2.390468   -0.664341
     57          1           0        1.795207   -3.131092    0.896343
     58          1           0        5.111796    0.776204   -2.253086
     59          1           0        6.331087   -3.004517   -0.582842
     60          1           0        4.970979   -2.438086   -1.507933
     61          1           0        7.736747   -1.880434   -1.949449
     62          1           0        6.355907   -1.333499   -2.887624
     63          1           0        5.886151    3.019908   -2.688312
     64          1           0        6.570229    3.997071   -1.381503
     65          1           0        8.335370    2.953011   -2.868509
     66          1           0        8.512345    2.600166   -1.156293
     67          1           0        7.514449    0.762631   -3.356454
     68          1           0        8.915348    0.528584   -2.320509
     69          1           0        5.049421    1.330252    1.614405
     70          1           0        3.366098    1.310184    1.131647
     71          1           0        3.826474    2.739075   -0.804474
     72          1           0        4.808077    3.430767    0.517866
     73          1           0        8.622183   -0.522327   -0.016368
     74          1           0        7.835687    0.949689    0.486049
     75          1           0        7.288590   -1.853234    1.172768
     76          1           0        5.475613   -1.487272    5.223073
     77          1           0        6.978689   -0.554215    5.076145
     78          1           0        5.393110    0.192372    4.656747
     79          1           0        4.420967   -3.981102    0.654462
     80          1           0        3.767456   -3.535944    2.249208
     81          1           0        5.496822   -3.425668    1.944296
     82          1           0       -0.285747   -1.190660   -2.973271
     83          1           0        0.515550    0.331579   -3.229843
     84          1           0       -2.327190   -1.311195   -1.663999
     85          1           0        0.043135    2.300882   -1.608973
     86          1           0       -1.764536    3.498415   -0.445999
     87          1           0       -4.996136   -1.225233   -2.051182
     88          1           0       -6.307287    2.631314   -1.647781
     89          1           0       -5.013451    1.707468   -2.366846
     90          1           0       -6.572660    0.242586   -3.106468
     91          1           0       -7.836160    1.045214   -2.189859
     92          1           0       -5.998376   -3.812944   -1.672091
     93          1           0       -6.098635   -4.260022    0.043877
     94          1           0       -8.332820   -3.703990   -1.012935
     95          1           0       -7.974956   -2.692963    0.371240
     96          1           0       -7.562722   -1.976835   -2.583744
     97          1           0       -8.837572   -1.350288   -1.548220
     98          1           0       -3.138813   -1.118451    1.128722
     99          1           0       -4.334060   -0.224634    2.000915
    100          1           0       -6.007110   -1.987508    1.530733
    101          1           0       -4.503516   -2.939334    1.581563
    102          1           0       -7.483975   -0.690086    1.028963
    103          1           0       -8.416339    0.412395    0.085471
    104          1           0       -7.147047    2.169044    0.506925
    105          1           0       -4.936428    1.943262    4.326712
    106          1           0       -6.659109    2.387277    4.613415
    107          1           0       -5.449292    3.641470    4.272671
    108          1           0       -5.472655    3.999766    0.457144
    109          1           0       -3.750887    4.297010    0.658574
    110          1           0       -4.430328    4.066636   -0.971075
 ---------------------------------------------------------------------

 SCF Done:  E(RHF) =  -2300.22209432     A.U. after   15 cycles

      1  C    Isotropic =   126.5783   Anisotropy =   141.7422

      2  C    Isotropic =   120.3399   Anisotropy =   156.8175

      3  C    Isotropic =   118.5906   Anisotropy =   157.5469

      4  C    Isotropic =   133.2857   Anisotropy =   143.5052

      5  C    Isotropic =   108.2099   Anisotropy =   127.7876

      6  C    Isotropic =   117.8496   Anisotropy =   141.1394

      7  N    Isotropic =   272.8367   Anisotropy =    83.8148

      8  C    Isotropic =   198.1689   Anisotropy =    12.8764

      9  C    Isotropic =   180.2036   Anisotropy =    43.3910

     10  C    Isotropic =   189.4068   Anisotropy =    32.4044

     11  C    Isotropic =   212.8244   Anisotropy =    20.6928

     12  C    Isotropic =   214.4752   Anisotropy =    19.2465

     13  C    Isotropic =   210.9094   Anisotropy =     8.1401

     14  N    Isotropic =   300.9290   Anisotropy =    59.6220

     15  C    Isotropic =   202.4216   Anisotropy =    39.6613

     16  C    Isotropic =   219.4514   Anisotropy =     9.7089

     17  C    Isotropic =   213.9936   Anisotropy =    23.2143

     18  C    Isotropic =   209.3810   Anisotropy =    30.9826

     19  C    Isotropic =   200.0453   Anisotropy =    40.9375

     20  C    Isotropic =   212.2769   Anisotropy =    20.6238

     21  C    Isotropic =   208.2115   Anisotropy =    10.8835

     22  C    Isotropic =    96.9429   Anisotropy =    98.9629

     23  O    Isotropic =  -136.1590   Anisotropy =   888.0388

     24  O    Isotropic =   284.7015   Anisotropy =   138.0094

     25  C    Isotropic =   197.4299   Anisotropy =    57.1477

     26  C    Isotropic =   209.8201   Anisotropy =    41.3634

     27  C    Isotropic =   206.5397   Anisotropy =    17.8765

     28  C    Isotropic =   119.8113   Anisotropy =   157.6499

     29  C    Isotropic =   121.1912   Anisotropy =   151.5194

     30  C    Isotropic =   119.2024   Anisotropy =   156.0093

     31  C    Isotropic =   134.5858   Anisotropy =   141.2288

     32  C    Isotropic =   109.4770   Anisotropy =   125.8583

     33  C    Isotropic =   119.3815   Anisotropy =   135.6339

     34  N    Isotropic =   275.6841   Anisotropy =    82.8487

     35  C    Isotropic =   195.3655   Anisotropy =    13.2894

     36  C    Isotropic =   181.4205   Anisotropy =    44.5017

     37  C    Isotropic =   180.1252   Anisotropy =    46.1276

     38  C    Isotropic =   213.8081   Anisotropy =    19.4631

     39  C    Isotropic =   212.4964   Anisotropy =    21.6624

     40  C    Isotropic =   212.0188   Anisotropy =    10.0193

     41  N    Isotropic =   234.6013   Anisotropy =    25.4733

     42  C    Isotropic =   194.9140   Anisotropy =    49.7456

     43  C    Isotropic =   222.9486   Anisotropy =    10.6498

     44  C    Isotropic =   215.7083   Anisotropy =    19.4248

     45  C    Isotropic =   210.9730   Anisotropy =    37.5852

     46  C    Isotropic =   191.7703   Anisotropy =    51.7363

     47  C    Isotropic =   212.5486   Anisotropy =    21.7072

     48  C    Isotropic =   209.4881   Anisotropy =     9.5865

     49  C    Isotropic =    96.1305   Anisotropy =    99.2993

     50  O    Isotropic =  -133.8185   Anisotropy =   887.5019

     51  O    Isotropic =   283.4279   Anisotropy =   138.5016

     52  C    Isotropic =   197.2114   Anisotropy =    57.5260

     53  C    Isotropic =   209.9707   Anisotropy =    41.2588

     54  O    Isotropic =     0.0981   Anisotropy =   523.2980

     55  H    Isotropic =    26.0662   Anisotropy =    14.0134

     56  H    Isotropic =    25.5591   Anisotropy =     8.3978

     57  H    Isotropic =    26.5396   Anisotropy =     9.6452

     58  H    Isotropic =    32.0835   Anisotropy =     8.0326

     59  H    Isotropic =    32.1157   Anisotropy =    13.1676

     60  H    Isotropic =    32.9766   Anisotropy =     9.0007

     61  H    Isotropic =    32.2774   Anisotropy =    15.5063

     62  H    Isotropic =    32.6644   Anisotropy =    12.7824

     63  H    Isotropic =    32.4315   Anisotropy =    11.7949

     64  H    Isotropic =    31.6944   Anisotropy =    14.8191

     65  H    Isotropic =    32.4044   Anisotropy =    17.4780

     66  H    Isotropic =    31.8298   Anisotropy =    12.8412

     67  H    Isotropic =    32.5543   Anisotropy =    12.5072

     68  H    Isotropic =    32.2527   Anisotropy =    15.0242

     69  H    Isotropic =    32.4790   Anisotropy =    11.7514

     70  H    Isotropic =    33.1117   Anisotropy =    11.3645

     71  H    Isotropic =    32.1866   Anisotropy =    12.8082

     72  H    Isotropic =    31.9268   Anisotropy =    15.1911

     73  H    Isotropic =    32.0109   Anisotropy =    15.3046

     74  H    Isotropic =    30.3306   Anisotropy =    10.2992

     75  H    Isotropic =    31.2260   Anisotropy =    12.4268

     76  H    Isotropic =    30.5498   Anisotropy =    11.4257

     77  H    Isotropic =    30.5290   Anisotropy =    12.1117

     78  H    Isotropic =    30.6332   Anisotropy =     7.6643

     79  H    Isotropic =    31.8688   Anisotropy =    11.3286

     80  H    Isotropic =    30.6979   Anisotropy =    13.9541

     81  H    Isotropic =    30.8777   Anisotropy =    10.8539

     82  H    Isotropic =    29.8758   Anisotropy =     9.7889

     83  H    Isotropic =    30.0989   Anisotropy =    10.1378

     84  H    Isotropic =    24.5385   Anisotropy =    15.3514

     85  H    Isotropic =    25.9201   Anisotropy =     7.9359

     86  H    Isotropic =    26.7556   Anisotropy =     9.3733

     87  H    Isotropic =    30.6457   Anisotropy =     7.2884

     88  H    Isotropic =    32.1398   Anisotropy =    13.4417

     89  H    Isotropic =    32.7963   Anisotropy =     9.2131

     90  H    Isotropic =    32.4256   Anisotropy =    13.5081

     91  H    Isotropic =    32.2564   Anisotropy =    15.1640

     92  H    Isotropic =    30.6799   Anisotropy =    13.1261

     93  H    Isotropic =    30.7908   Anisotropy =    13.7711

     94  H    Isotropic =    32.2773   Anisotropy =    18.2923

     95  H    Isotropic =    32.5145   Anisotropy =    10.1298

     96  H    Isotropic =    32.4499   Anisotropy =    13.3452

     97  H    Isotropic =    32.3971   Anisotropy =    14.7372

     98  H    Isotropic =    31.7277   Anisotropy =    13.4673

     99  H    Isotropic =    32.9167   Anisotropy =    10.2819

    100  H    Isotropic =    31.4570   Anisotropy =     7.9248

    101  H    Isotropic =    30.9142   Anisotropy =    14.5624

    102  H    Isotropic =    31.5766   Anisotropy =     9.5501

    103  H    Isotropic =    32.1754   Anisotropy =    14.7330

    104  H    Isotropic =    31.1642   Anisotropy =    12.3778

    105  H    Isotropic =    30.6785   Anisotropy =     7.6344

    106  H    Isotropic =    30.5796   Anisotropy =    11.7407

    107  H    Isotropic =    30.5411   Anisotropy =    11.7578

    108  H    Isotropic =    30.9647   Anisotropy =    10.6758

    109  H    Isotropic =    30.7565   Anisotropy =    13.9401

    110  H    Isotropic =    31.9192   Anisotropy =    11.6324

 The electronic state is 1-A.
 Alpha  occ. eigenvalues --  -20.31242 -20.29606 -20.25119 -20.23608 -19.91683
 Alpha  occ. eigenvalues --  -15.47753 -15.33714 -15.32679 -15.29600 -11.17155
 Alpha  occ. eigenvalues --  -11.15488 -11.10936 -11.10098 -11.09755 -11.09283
 Alpha  occ. eigenvalues --  -11.09082 -11.08695 -11.08599 -11.08138 -11.07253
 Alpha  occ. eigenvalues --  -11.07137 -11.07081 -11.06844 -11.06511 -11.06242
 Alpha  occ. eigenvalues --  -11.06162 -11.06126 -11.05775 -11.05569 -11.05520
 Alpha  occ. eigenvalues --  -11.05328 -11.05024 -11.04922 -11.04911 -11.04692
 Alpha  occ. eigenvalues --  -11.04635 -11.04563 -11.03551 -11.03426 -11.03366
 Alpha  occ. eigenvalues --  -11.03169 -11.03107 -11.03090 -11.03016 -11.01348
 Alpha  occ. eigenvalues --  -11.01328 -11.01265 -11.01132 -11.01099 -11.00920
 Alpha  occ. eigenvalues --  -11.00889 -11.00795 -11.00737 -11.00518  -1.38420
 Alpha  occ. eigenvalues --   -1.36879  -1.28301  -1.28120  -1.26564  -1.21202
 Alpha  occ. eigenvalues --   -1.20848  -1.18629  -1.11915  -1.08669  -1.08136
 Alpha  occ. eigenvalues --   -1.06906  -1.06238  -1.04233  -1.03258  -1.00642
 Alpha  occ. eigenvalues --   -0.99833  -0.98609  -0.97947  -0.97355  -0.96527
 Alpha  occ. eigenvalues --   -0.95824  -0.94617  -0.93677  -0.93587  -0.92219
 Alpha  occ. eigenvalues --   -0.91704  -0.90950  -0.90652  -0.89211  -0.87722
 Alpha  occ. eigenvalues --   -0.86144  -0.84437  -0.82935  -0.82387  -0.80783
 Alpha  occ. eigenvalues --   -0.80659  -0.78857  -0.78705  -0.78063  -0.76459
 Alpha  occ. eigenvalues --   -0.76333  -0.74426  -0.73370  -0.72371  -0.72249
 Alpha  occ. eigenvalues --   -0.71570  -0.70348  -0.69280  -0.68735  -0.66915
 Alpha  occ. eigenvalues --   -0.65823  -0.64638  -0.63981  -0.63843  -0.62981
 Alpha  occ. eigenvalues --   -0.62457  -0.61830  -0.61718  -0.61390  -0.60768
 Alpha  occ. eigenvalues --   -0.60548  -0.59741  -0.59464  -0.59098  -0.58943
 Alpha  occ. eigenvalues --   -0.58311  -0.57801  -0.57581  -0.57392  -0.57216
 Alpha  occ. eigenvalues --   -0.56750  -0.56373  -0.56097  -0.55822  -0.55722
 Alpha  occ. eigenvalues --   -0.55318  -0.55141  -0.54445  -0.54266  -0.53696
 Alpha  occ. eigenvalues --   -0.53556  -0.53106  -0.52840  -0.52675  -0.52108
 Alpha  occ. eigenvalues --   -0.52002  -0.51125  -0.50844  -0.50554  -0.50180
 Alpha  occ. eigenvalues --   -0.49802  -0.49767  -0.49586  -0.48724  -0.48542
 Alpha  occ. eigenvalues --   -0.48304  -0.47930  -0.47535  -0.47271  -0.47124
 Alpha  occ. eigenvalues --   -0.46333  -0.46157  -0.46038  -0.45795  -0.45265
 Alpha  occ. eigenvalues --   -0.44938  -0.44812  -0.44757  -0.44303  -0.43930
 Alpha  occ. eigenvalues --   -0.43581  -0.43188  -0.42935  -0.42609  -0.42268
 Alpha  occ. eigenvalues --   -0.41970  -0.41363  -0.41126  -0.41013  -0.40787
 Alpha  occ. eigenvalues --   -0.40209  -0.39536  -0.39131  -0.38799  -0.37534
 Alpha  occ. eigenvalues --   -0.37230  -0.36638  -0.35438  -0.35266  -0.34530
 Alpha  occ. eigenvalues --   -0.33793  -0.33182  -0.32335  -0.32181  -0.30990
 Alpha  occ. eigenvalues --   -0.26800  -0.26394  -0.26097  -0.20966  -0.19703
 Alpha  occ. eigenvalues --   -0.15567  -0.15390
 Alpha virt. eigenvalues --    0.27385   0.27702   0.28216   0.29802   0.30030
 Alpha virt. eigenvalues --    0.31571   0.46716   0.47395   0.48981   0.49203
 Alpha virt. eigenvalues --    0.50178   0.50402   0.50821   0.51510   0.52887

 Mulliken charges:
               1
     1  C   -0.077453
     2  C    0.001581
     3  C   -0.061793
     4  C   -0.089381
     5  C    0.089253
     6  C   -0.015253
     7  N   -0.283476
     8  C    0.015375
     9  C    0.130008
    10  C    0.040679
    11  C   -0.114778
    12  C   -0.107920
    13  C    0.041582
    14  N   -0.294300
    15  C   -0.011716
    16  C   -0.095593
    17  C   -0.100355
    18  C   -0.099358
    19  C   -0.013259
    20  C   -0.104339
    21  C   -0.063931
    22  C    0.318347
    23  O   -0.274928
    24  O   -0.255771
    25  C   -0.055226
    26  C   -0.078592
    27  C   -0.109745
    28  C   -0.000106
    29  C   -0.072130
    30  C   -0.060946
    31  C   -0.091559
    32  C    0.088408
    33  C   -0.015282
    34  N   -0.287875
    35  C    0.021214
    36  C    0.128887
    37  C    0.040774
    38  C   -0.115672
    39  C   -0.104809
    40  C    0.028108
    41  N   -0.085602
    42  C   -0.007772
    43  C   -0.110750
    44  C   -0.102175
    45  C   -0.106802
    46  C   -0.012294
    47  C   -0.111599
    48  C   -0.067029
    49  C    0.320459
    50  O   -0.278767
    51  O   -0.254072
    52  C   -0.055689
    53  C   -0.078652
    54  O   -0.454027
    55  H    0.054632
    56  H    0.064806
    57  H    0.059956
    58  H    0.042002
    59  H    0.048982
    60  H    0.054393
    61  H    0.047889
    62  H    0.048827
    63  H    0.038204
    64  H    0.060561
    65  H    0.049191
    66  H    0.055887
    67  H    0.046444
    68  H    0.051026
    69  H    0.064803
    70  H    0.058599
    71  H    0.039113
    72  H    0.061188
    73  H    0.047611
    74  H    0.079417
    75  H    0.062759
    76  H    0.076200
    77  H    0.071006
    78  H    0.073918
    79  H    0.054560
    80  H    0.071491
    81  H    0.075120
    82  H    0.061339
    83  H    0.054431
    84  H    0.090684
    85  H    0.055268
    86  H    0.056949
    87  H    0.086160
    88  H    0.052582
    89  H    0.058239
    90  H    0.053979
    91  H    0.051257
    92  H    0.088851
    93  H    0.080582
    94  H    0.065541
    95  H    0.057229
    96  H    0.056696
    97  H    0.057149
    98  H    0.083032
    99  H    0.071150
   100  H    0.067506
   101  H    0.088992
   102  H    0.066133
   103  H    0.054791
   104  H    0.066868
   105  H    0.075949
   106  H    0.072908
   107  H    0.078890
   108  H    0.075113
   109  H    0.073411
   110  H    0.055837
 Sum of Mulliken charges =  -0.00000

 Dipole moment (field-independent basis, Debye):
    X=             -4.4109    Y=              1.7420    Z=             -0.3718  Tot=              4.7569
 Quadrupole moment (field-independent basis, Debye-Ang):
   XX=           -260.9673   YY=           -298.8689   ZZ=           -293.2058
   XY=            -16.6318   XZ=             -3.8343   YZ=             -5.1568

 Summary of Natural Population Analysis:

                                       Natural Population
                Natural  -----------------------------------------------
    Atom  No    Charge         Core      Valence    Rydberg      Total
 -----------------------------------------------------------------------
      C    1   -0.06064      1.99993     4.06071    0.00000     6.06064
      C    2    0.01593      1.99990     3.98416    0.00000     5.98407
      C    3   -0.03317      1.99994     4.03323    0.00000     6.03317
      C    4   -0.08673      1.99993     4.08680    0.00000     6.08673
      C    5    0.11292      1.99985     3.88723    0.00000     5.88708
      C    6   -0.02456      1.99990     4.02466    0.00000     6.02456
      N    7   -0.27247      1.99998     5.27249    0.00000     7.27247
      C    8    0.01571      1.99996     3.98433    0.00000     5.98429
      C    9    0.17359      1.99996     3.82645    0.00000     5.82641
      C   10    0.07275      1.99994     3.92731    0.00000     5.92725
      C   11   -0.08453      1.99994     4.08460    0.00000     6.08453
      C   12   -0.07813      1.99996     4.07817    0.00000     6.07813
      C   13    0.06329      1.99998     3.93673    0.00000     5.93671
      N   14   -0.28440      1.99999     5.28442    0.00000     7.28440
      C   15    0.04307      1.99994     3.95698    0.00000     5.95693
      C   16   -0.05866      1.99996     4.05870    0.00000     6.05866
      C   17   -0.06439      1.99995     4.06444    0.00000     6.06439
      C   18   -0.06642      1.99994     4.06648    0.00000     6.06642
      C   19    0.04063      1.99995     3.95942    0.00000     5.95937
      C   20   -0.06675      1.99992     4.06683    0.00000     6.06675
      C   21   -0.08005      1.99994     4.08011    0.00000     6.08005
      C   22    0.40081      1.99991     3.59928    0.00000     5.59919
      O   23   -0.30899      1.99999     6.30900    0.00000     8.30899
      O   24   -0.26749      1.99999     6.26750    0.00000     8.26749
      C   25    0.03516      1.99984     3.96500    0.00000     5.96484
      C   26   -0.01625      1.99992     4.01633    0.00000     6.01625
      C   27   -0.08707      1.99996     4.08712    0.00000     6.08707
      C   28    0.01272      1.99990     3.98738    0.00000     5.98728
      C   29   -0.05126      1.99993     4.05133    0.00000     6.05126
      C   30   -0.03116      1.99994     4.03121    0.00000     6.03116
      C   31   -0.08979      1.99993     4.08986    0.00000     6.08979
      C   32    0.11199      1.99986     3.88815    0.00000     5.88801
      C   33   -0.02973      1.99990     4.02983    0.00000     6.02973
      N   34   -0.27651      1.99998     5.27653    0.00000     7.27651
      C   35    0.02244      1.99996     3.97760    0.00000     5.97756
      C   36    0.17154      1.99996     3.82850    0.00000     5.82846
      C   37    0.07297      1.99991     3.92712    0.00000     5.92703
      C   38   -0.08621      1.99994     4.08627    0.00000     6.08621
      C   39   -0.07265      1.99996     4.07269    0.00000     6.07265
      C   40    0.04998      1.99998     3.95004    0.00000     5.95002
      N   41    0.02621      1.99999     4.97380    0.00000     6.97379
      C   42    0.04347      1.99991     3.95662    0.00000     5.95653
      C   43   -0.08106      1.99997     4.08109    0.00000     6.08106
      C   44   -0.06978      1.99996     4.06983    0.00000     6.06978
      C   45   -0.08110      1.99994     4.08115    0.00000     6.08110
      C   46    0.03823      1.99992     3.96185    0.00000     5.96177
      C   47   -0.07538      1.99992     4.07546    0.00000     6.07538
      C   48   -0.08576      1.99995     4.08581    0.00000     6.08576
      C   49    0.40381      1.99991     3.59628    0.00000     5.59619
      O   50   -0.31316      1.99999     6.31317    0.00000     8.31316
      O   51   -0.26543      1.99999     6.26544    0.00000     8.26543
      C   52    0.03484      1.99984     3.96532    0.00000     5.96516
      C   53   -0.01571      1.99992     4.01578    0.00000     6.01571
      O   54   -0.50491      2.00000     6.50491    0.00000     8.50491
      H   55    0.02983      0.00000     0.97017    0.00000     0.97017
      H   56    0.03677      0.00000     0.96323    0.00000     0.96323
      H   57    0.03578      0.00000     0.96422    0.00000     0.96422
      H   58    0.01159      0.00000     0.98841    0.00000     0.98841
      H   59    0.02699      0.00000     0.97301    0.00000     0.97301
      H   60    0.03143      0.00000     0.96857    0.00000     0.96857
      H   61    0.02760      0.00000     0.97240    0.00000     0.97240
      H   62    0.02849      0.00000     0.97151    0.00000     0.97151
      H   63    0.01058      0.00000     0.98942    0.00000     0.98942
      H   64    0.03462      0.00000     0.96538    0.00000     0.96538
      H   65    0.02794      0.00000     0.97206    0.00000     0.97206
      H   66    0.03386      0.00000     0.96614    0.00000     0.96614
      H   67    0.02495      0.00000     0.97505    0.00000     0.97505
      H   68    0.02943      0.00000     0.97057    0.00000     0.97057
      H   69    0.04039      0.00000     0.95961    0.00000     0.95961
      H   70    0.03651      0.00000     0.96349    0.00000     0.96349
      H   71    0.01149      0.00000     0.98851    0.00000     0.98851
      H   72    0.03491      0.00000     0.96509    0.00000     0.96509
      H   73    0.02476      0.00000     0.97524    0.00000     0.97524
      H   74    0.05286      0.00000     0.94714    0.00000     0.94714
      H   75    0.03969      0.00000     0.96031    0.00000     0.96031
      H   76    0.04524      0.00000     0.95476    0.00000     0.95476
      H   77    0.03955      0.00000     0.96045    0.00000     0.96045
      H   78    0.04254      0.00000     0.95746    0.00000     0.95746
      H   79    0.02920      0.00000     0.97080    0.00000     0.97080
      H   80    0.04719      0.00000     0.95281    0.00000     0.95281
      H   81    0.05086      0.00000     0.94914    0.00000     0.94914
      H   82    0.04245      0.00000     0.95755    0.00000     0.95755
      H   83    0.03600      0.00000     0.96400    0.00000     0.96400
      H   84    0.06159      0.00000     0.93841    0.00000     0.93841
      H   85    0.02803      0.00000     0.97197    0.00000     0.97197
      H   86    0.03317      0.00000     0.96683    0.00000     0.96683
      H   87    0.05021      0.00000     0.94979    0.00000     0.94979
      H   88    0.03029      0.00000     0.96971    0.00000     0.96971
      H   89    0.03493      0.00000     0.96507    0.00000     0.96507
      H   90    0.03234      0.00000     0.96766    0.00000     0.96766
      H   91    0.02992      0.00000     0.97008    0.00000     0.97008
      H   92    0.05713      0.00000     0.94287    0.00000     0.94287
      H   93    0.05001      0.00000     0.94999    0.00000     0.94999
      H   94    0.04582      0.00000     0.95418    0.00000     0.95418
      H   95    0.03659      0.00000     0.96341    0.00000     0.96341
      H   96    0.03557      0.00000     0.96443    0.00000     0.96443
      H   97    0.03623      0.00000     0.96377    0.00000     0.96377
      H   98    0.05986      0.00000     0.94014    0.00000     0.94014
      H   99    0.04811      0.00000     0.95189    0.00000     0.95189
      H  100    0.03569      0.00000     0.96431    0.00000     0.96431
      H  101    0.05820      0.00000     0.94180    0.00000     0.94180
      H  102    0.04099      0.00000     0.95901    0.00000     0.95901
      H  103    0.03270      0.00000     0.96730    0.00000     0.96730
      H  104    0.04412      0.00000     0.95588    0.00000     0.95588
      H  105    0.04430      0.00000     0.95570    0.00000     0.95570
      H  106    0.04127      0.00000     0.95873    0.00000     0.95873
      H  107    0.04763      0.00000     0.95237    0.00000     0.95237
      H  108    0.05075      0.00000     0.94925    0.00000     0.94925
      H  109    0.04890      0.00000     0.95110    0.00000     0.95110
      H  110    0.03036      0.00000     0.96964    0.00000     0.96964
 =======================================================================
   * Total *   -0.00000    107.99670   286.00330    0.00000   394.00000

 Normal termination of Gaussian 16 at Thu May 30 09:00:49 2024.
