 Gaussian 16, Revision B.01,
 Gaussian 16:  ES64L-G16RevB.01 20-Dec-2017

 ----------------------------------------------
 # nmr=giao hf/sto-3g pop=nbo geom=connectivity
 ----------------------------------------------

 ------------------
 pleiokomenine_C_1a
 ------------------
 Symbolic Z-matrix:
 Charge =  0 Multiplicity = 1

                         Standard orientation:
 ---------------------------------------------------------------------
 Center     Atomic      Atomic             Coordinates (Angstroms)
 Number     Number       Type             X           Y           Z
 ---------------------------------------------------------------------
      1          6           0        1.840550    1.614924   -1.665230
      2          6           0        1.346691    2.921715   -1.774965
      3          6           0        1.971059    3.961181   -1.053283
      4          6           0        3.059267    3.708790   -0.205183
      5          6           0        3.501461    2.405990   -0.056750
      6          6           0        2.898957    1.376848   -0.806238
      7          7           0        4.500835    1.904849    0.830112
      8          6           0        3.616987    0.087246   -0.503353
      9          6           0        4.105197    0.472061    0.938379
     10          6           0        2.871327   -1.245454   -0.436009
     11          6           0        2.876676    0.368961    1.957665
     12          6           0        2.249286   -1.025366    1.955396
     13          6           0        2.988796   -1.915421    0.951035
     14          7           0        3.600211   -2.109738   -1.370408
     15          6           0        2.867880   -3.325426   -1.652655
     16          6           0        2.822395   -4.137559   -0.346686
     17          6           0        2.341410   -3.318264    0.865834
     18          6           0        4.615874   -0.108258   -1.673780
     19          6           0        4.016836   -1.270587   -2.469573
     20          6           0        4.489971   -1.968710    1.407522
     21          6           0        5.124620   -0.540260    1.503820
     22          6           0        6.535681   -0.494182    0.940298
     23          8           0        7.104624   -1.420736    0.376192
     24          8           0        7.137711    0.691946    1.237312
     25          6           0        8.459662    0.825437    0.717493
     26          6           0        4.774229    2.696775    2.018505
     27          6           0        0.112079    3.190698   -2.608129
     28          6           0       -1.174603    2.928489   -1.852929
     29          6           0       -1.569802    1.610970   -1.580685
     30          6           0       -1.952650    3.994947   -1.360803
     31          6           0       -3.116043    3.760698   -0.614243
     32          6           0       -3.496980    2.455091   -0.352439
     33          6           0       -2.704246    1.393350   -0.816183
     34          7           0       -4.637469    2.000399    0.360316
     35          6           0       -3.247852    0.096734   -0.269442
     36          6           0       -4.739928    0.584344   -0.066736
     37          6           0       -3.246280   -1.181691   -1.124477
     38          6           0       -5.493029    0.505527   -1.466120
     39          6           0       -5.544081   -0.937780   -1.989337
     40          6           0       -4.671011   -1.831565   -1.082690
     41          7           0       -2.113659   -2.035260   -0.576272
     42          6           0       -2.222209   -3.494566   -0.932912
     43          6           0       -3.608770   -4.097975   -0.821159
     44          6           0       -4.622503   -3.271280   -1.603834
     45          6           0       -2.383512   -0.255813    0.970641
     46          6           0       -2.102929   -1.750594    0.892076
     47          6           0       -5.371015   -1.789545    0.319278
     48          6           0       -5.547302   -0.345607    0.851554
     49          6           0       -5.271177   -0.250498    2.341532
     50          8           0       -4.651402   -1.086621    2.988209
     51          8           0       -5.864975    0.851086    2.876089
     52          6           0       -5.614949    1.034289    4.269659
     53          6           0       -5.797066    2.879559    0.362126
     54          8           0       -0.907822   -1.602579   -1.113529
     55          1           0        1.387691    0.795622   -2.216176
     56          1           0        1.593640    4.978116   -1.132933
     57          1           0        3.511236    4.524752    0.345759
     58          1           0        1.822239   -1.123844   -0.735612
     59          1           0        3.214313    0.606259    2.975428
     60          1           0        2.091287    1.104965    1.745160
     61          1           0        2.291948   -1.456371    2.963292
     62          1           0        1.185936   -0.945852    1.697536
     63          1           0        1.854974   -3.119056   -2.018778
     64          1           0        3.381868   -3.919476   -2.416663
     65          1           0        2.172702   -5.010375   -0.479233
     66          1           0        3.826204   -4.526862   -0.132387
     67          1           0        1.252268   -3.206053    0.780120
     68          1           0        2.523328   -3.883150    1.787792
     69          1           0        5.610676   -0.389475   -1.330878
     70          1           0        4.744228    0.768893   -2.319192
     71          1           0        3.175391   -0.944560   -3.091611
     72          1           0        4.770415   -1.748588   -3.102267
     73          1           0        4.547593   -2.440343    2.398042
     74          1           0        5.066867   -2.621452    0.744332
     75          1           0        5.270777   -0.341113    2.576548
     76          1           0        8.460066    0.710790   -0.371221
     77          1           0        8.818243    1.829916    0.958316
     78          1           0        9.128928    0.097034    1.185561
     79          1           0        3.860220    2.950936    2.566882
     80          1           0        5.289212    3.624880    1.747983
     81          1           0        5.433915    2.153559    2.702045
     82          1           0        0.132891    2.568929   -3.513119
     83          1           0        0.131984    4.225326   -2.974188
     84          1           0       -0.970990    0.768246   -1.914326
     85          1           0       -1.645973    5.021847   -1.546473
     86          1           0       -3.690206    4.601341   -0.242659
     87          1           0       -2.959292   -0.987846   -2.167405
     88          1           0       -6.518484    0.886054   -1.374649
     89          1           0       -5.014299    1.141284   -2.221323
     90          1           0       -5.196963   -0.965704   -3.029753
     91          1           0       -6.582174   -1.293470   -2.002702
     92          1           0       -1.878869   -3.565634   -1.973366
     93          1           0       -1.499440   -4.020916   -0.299224
     94          1           0       -3.588533   -5.117534   -1.223767
     95          1           0       -3.902689   -4.191258    0.228448
     96          1           0       -4.348177   -3.277341   -2.666693
     97          1           0       -5.610926   -3.741480   -1.535368
     98          1           0       -1.408860    0.251631    0.927542
     99          1           0       -2.806440    0.051146    1.925930
    100          1           0       -2.863548   -2.363652    1.370343
    101          1           0       -1.118985   -2.024019    1.285957
    102          1           0       -4.861846   -2.429735    1.038744
    103          1           0       -6.372147   -2.236161    0.229049
    104          1           0       -6.618245   -0.107815    0.759432
    105          1           0       -6.056211    0.215871    4.846760
    106          1           0       -6.087667    1.970806    4.578104
    107          1           0       -4.539925    1.109981    4.461431
    108          1           0       -6.663347    2.377705    0.803902
    109          1           0       -5.601321    3.770217    0.968716
    110          1           0       -6.073698    3.197160   -0.649578
 ---------------------------------------------------------------------

 SCF Done:  E(RHF) =  -2300.22236582     A.U. after   16 cycles

      1  C    Isotropic =   125.8089   Anisotropy =   148.4386

      2  C    Isotropic =   120.8612   Anisotropy =   156.8952

      3  C    Isotropic =   120.1242   Anisotropy =   151.1195

      4  C    Isotropic =   133.6118   Anisotropy =   143.4654

      5  C    Isotropic =   107.5853   Anisotropy =   129.8125

      6  C    Isotropic =   117.1836   Anisotropy =   143.8190

      7  N    Isotropic =   271.2922   Anisotropy =    81.5096

      8  C    Isotropic =   198.7781   Anisotropy =    13.5026

      9  C    Isotropic =   179.7693   Anisotropy =    43.6980

     10  C    Isotropic =   189.2836   Anisotropy =    32.5351

     11  C    Isotropic =   212.7378   Anisotropy =    20.7599

     12  C    Isotropic =   214.6483   Anisotropy =    17.3563

     13  C    Isotropic =   210.8931   Anisotropy =     7.6149

     14  N    Isotropic =   298.7312   Anisotropy =    57.3801

     15  C    Isotropic =   202.0654   Anisotropy =    38.8630

     16  C    Isotropic =   219.1892   Anisotropy =     7.9894

     17  C    Isotropic =   214.0146   Anisotropy =    21.5162

     18  C    Isotropic =   209.4046   Anisotropy =    31.1554

     19  C    Isotropic =   199.8837   Anisotropy =    40.8537

     20  C    Isotropic =   212.2753   Anisotropy =    22.1768

     21  C    Isotropic =   208.1227   Anisotropy =    12.5106

     22  C    Isotropic =    97.0092   Anisotropy =    98.8580

     23  O    Isotropic =  -136.4320   Anisotropy =   887.3430

     24  O    Isotropic =   285.1581   Anisotropy =   138.1515

     25  C    Isotropic =   197.4658   Anisotropy =    57.8048

     26  C    Isotropic =   209.8879   Anisotropy =    41.3937

     27  C    Isotropic =   206.5290   Anisotropy =    14.8629

     28  C    Isotropic =   119.4349   Anisotropy =   157.8723

     29  C    Isotropic =   122.1114   Anisotropy =   157.1941

     30  C    Isotropic =   119.1554   Anisotropy =   151.2058

     31  C    Isotropic =   134.3495   Anisotropy =   141.2743

     32  C    Isotropic =   109.7648   Anisotropy =   125.8173

     33  C    Isotropic =   119.7830   Anisotropy =   135.8798

     34  N    Isotropic =   275.5079   Anisotropy =    81.8917

     35  C    Isotropic =   195.6904   Anisotropy =    13.6046

     36  C    Isotropic =   181.3837   Anisotropy =    44.5184

     37  C    Isotropic =   180.2205   Anisotropy =    47.5170

     38  C    Isotropic =   213.8078   Anisotropy =    19.4644

     39  C    Isotropic =   212.4899   Anisotropy =    21.9993

     40  C    Isotropic =   211.9998   Anisotropy =     9.5797

     41  N    Isotropic =   235.0388   Anisotropy =    27.6850

     42  C    Isotropic =   194.9131   Anisotropy =    48.5306

     43  C    Isotropic =   222.9838   Anisotropy =    11.5055

     44  C    Isotropic =   215.7664   Anisotropy =    18.7511

     45  C    Isotropic =   211.0539   Anisotropy =    37.4871

     46  C    Isotropic =   191.9383   Anisotropy =    50.0019

     47  C    Isotropic =   212.5300   Anisotropy =    21.5307

     48  C    Isotropic =   209.5282   Anisotropy =     9.2841

     49  C    Isotropic =    96.1010   Anisotropy =    98.6559

     50  O    Isotropic =  -133.6394   Anisotropy =   887.8006

     51  O    Isotropic =   283.1959   Anisotropy =   139.2612

     52  C    Isotropic =   197.2141   Anisotropy =    57.4494

     53  C    Isotropic =   209.9532   Anisotropy =    42.2148

     54  O    Isotropic =     2.6588   Anisotropy =   523.4377

     55  H    Isotropic =    25.6319   Anisotropy =    12.0716

     56  H    Isotropic =    25.8941   Anisotropy =     6.8339

     57  H    Isotropic =    26.6518   Anisotropy =     7.7397

     58  H    Isotropic =    31.4818   Anisotropy =    13.1786

     59  H    Isotropic =    32.3591   Anisotropy =    12.6010

     60  H    Isotropic =    33.4030   Anisotropy =     8.7270

     61  H    Isotropic =    32.4901   Anisotropy =    13.8324

     62  H    Isotropic =    32.6786   Anisotropy =    17.6857

     63  H    Isotropic =    31.9739   Anisotropy =    11.9333

     64  H    Isotropic =    31.7573   Anisotropy =    15.0824

     65  H    Isotropic =    32.3925   Anisotropy =    15.7709

     66  H    Isotropic =    31.8736   Anisotropy =    14.0772

     67  H    Isotropic =    32.2335   Anisotropy =    15.6887

     68  H    Isotropic =    32.3666   Anisotropy =    13.8746

     69  H    Isotropic =    32.4696   Anisotropy =    12.9660

     70  H    Isotropic =    32.9395   Anisotropy =    11.4710

     71  H    Isotropic =    32.1318   Anisotropy =    10.7190

     72  H    Isotropic =    31.9466   Anisotropy =    16.2387

     73  H    Isotropic =    32.0896   Anisotropy =    14.8538

     74  H    Isotropic =    30.3182   Anisotropy =    11.0212

     75  H    Isotropic =    31.3310   Anisotropy =    12.4998

     76  H    Isotropic =    30.5771   Anisotropy =     8.0447

     77  H    Isotropic =    30.5386   Anisotropy =    12.0118

     78  H    Isotropic =    30.5192   Anisotropy =    12.1570

     79  H    Isotropic =    32.0259   Anisotropy =    10.5637

     80  H    Isotropic =    30.7647   Anisotropy =    14.9692

     81  H    Isotropic =    30.9304   Anisotropy =    11.1436

     82  H    Isotropic =    29.9773   Anisotropy =     7.9246

     83  H    Isotropic =    29.9425   Anisotropy =    12.5401

     84  H    Isotropic =    24.7539   Anisotropy =    14.1318

     85  H    Isotropic =    25.6959   Anisotropy =     6.5949

     86  H    Isotropic =    26.6676   Anisotropy =     7.9519

     87  H    Isotropic =    30.6822   Anisotropy =     6.4219

     88  H    Isotropic =    32.1339   Anisotropy =    14.1982

     89  H    Isotropic =    32.7820   Anisotropy =     8.8192

     90  H    Isotropic =    32.4284   Anisotropy =    13.3435

     91  H    Isotropic =    32.2496   Anisotropy =    15.6288

     92  H    Isotropic =    30.7110   Anisotropy =    11.7807

     93  H    Isotropic =    30.8464   Anisotropy =    13.1036

     94  H    Isotropic =    32.2821   Anisotropy =    17.8491

     95  H    Isotropic =    32.5389   Anisotropy =     9.6695

     96  H    Isotropic =    32.4641   Anisotropy =    13.0121

     97  H    Isotropic =    32.4005   Anisotropy =    15.2357

     98  H    Isotropic =    32.1538   Anisotropy =    14.7326

     99  H    Isotropic =    33.0418   Anisotropy =    10.4505

    100  H    Isotropic =    31.5071   Anisotropy =     7.4348

    101  H    Isotropic =    31.1139   Anisotropy =    16.0130

    102  H    Isotropic =    31.6308   Anisotropy =     8.8354

    103  H    Isotropic =    32.1816   Anisotropy =    15.0708

    104  H    Isotropic =    31.1612   Anisotropy =    13.1200

    105  H    Isotropic =    30.5911   Anisotropy =    11.6294

    106  H    Isotropic =    30.5317   Anisotropy =    12.2519

    107  H    Isotropic =    30.6973   Anisotropy =     7.3793

    108  H    Isotropic =    30.9640   Anisotropy =    11.0028

    109  H    Isotropic =    30.7180   Anisotropy =    14.4668

    110  H    Isotropic =    31.9080   Anisotropy =    12.1992

 The electronic state is 1-A.
 Alpha  occ. eigenvalues --  -20.31442 -20.29179 -20.25326 -20.23153 -19.92286
 Alpha  occ. eigenvalues --  -15.48216 -15.33926 -15.32327 -15.28607 -11.17367
 Alpha  occ. eigenvalues --  -11.15011 -11.11121 -11.10341 -11.09689 -11.09445
 Alpha  occ. eigenvalues --  -11.09431 -11.09109 -11.08313 -11.08002 -11.07541
 Alpha  occ. eigenvalues --  -11.07357 -11.07141 -11.06823 -11.06463 -11.06040
 Alpha  occ. eigenvalues --  -11.05820 -11.05514 -11.05279 -11.05269 -11.05161
 Alpha  occ. eigenvalues --  -11.05128 -11.04997 -11.04799 -11.04732 -11.04383
 Alpha  occ. eigenvalues --  -11.04106 -11.03694 -11.03639 -11.02470 -11.02453
 Alpha  occ. eigenvalues --  -11.02436 -11.02428 -11.02414 -11.02327 -11.01551
 Alpha  occ. eigenvalues --  -11.01488 -11.01339 -11.01076 -11.01064 -11.01060
 Alpha  occ. eigenvalues --  -11.00708 -11.00628 -11.00401 -11.00340  -1.38619
 Alpha  occ. eigenvalues --   -1.36456  -1.28640  -1.28438  -1.26109  -1.21420
 Alpha  occ. eigenvalues --   -1.20168  -1.17766  -1.12191  -1.08475  -1.07751
 Alpha  occ. eigenvalues --   -1.06899  -1.06299  -1.03736  -1.03277  -1.00882
 Alpha  occ. eigenvalues --   -0.99583  -0.98747  -0.97716  -0.96987  -0.96605
 Alpha  occ. eigenvalues --   -0.95061  -0.95012  -0.93283  -0.92784  -0.92422
 Alpha  occ. eigenvalues --   -0.92013  -0.90631  -0.90179  -0.89230  -0.87673
 Alpha  occ. eigenvalues --   -0.86017  -0.84037  -0.83182  -0.82146  -0.80910
 Alpha  occ. eigenvalues --   -0.80116  -0.79156  -0.78461  -0.77929  -0.75753
 Alpha  occ. eigenvalues --   -0.75578  -0.74671  -0.72762  -0.72608  -0.71877
 Alpha  occ. eigenvalues --   -0.71138  -0.70585  -0.69116  -0.68182  -0.67164
 Alpha  occ. eigenvalues --   -0.66063  -0.64274  -0.64021  -0.63230  -0.62966
 Alpha  occ. eigenvalues --   -0.62228  -0.62144  -0.61889  -0.61127  -0.60932
 Alpha  occ. eigenvalues --   -0.60007  -0.59929  -0.59252  -0.58672  -0.58552
 Alpha  occ. eigenvalues --   -0.58387  -0.57870  -0.57577  -0.56919  -0.56582
 Alpha  occ. eigenvalues --   -0.56374  -0.56146  -0.55987  -0.55556  -0.55464
 Alpha  occ. eigenvalues --   -0.55360  -0.54723  -0.54608  -0.54057  -0.53644
 Alpha  occ. eigenvalues --   -0.53154  -0.52794  -0.52565  -0.52241  -0.52204
 Alpha  occ. eigenvalues --   -0.51967  -0.51146  -0.50797  -0.50382  -0.50092
 Alpha  occ. eigenvalues --   -0.49971  -0.49396  -0.49029  -0.48782  -0.48467
 Alpha  occ. eigenvalues --   -0.48288  -0.47922  -0.47618  -0.46900  -0.46825
 Alpha  occ. eigenvalues --   -0.46381  -0.46144  -0.45612  -0.45458  -0.45399
 Alpha  occ. eigenvalues --   -0.45135  -0.44700  -0.44366  -0.43838  -0.43623
 Alpha  occ. eigenvalues --   -0.43359  -0.42819  -0.42529  -0.42419  -0.41961
 Alpha  occ. eigenvalues --   -0.41840  -0.41301  -0.40837  -0.40503  -0.40051
 Alpha  occ. eigenvalues --   -0.39753  -0.39686  -0.39037  -0.38474  -0.37833
 Alpha  occ. eigenvalues --   -0.36371  -0.35934  -0.35785  -0.34795  -0.34382
 Alpha  occ. eigenvalues --   -0.33989  -0.32758  -0.32440  -0.31871  -0.30596
 Alpha  occ. eigenvalues --   -0.26571  -0.25959  -0.25737  -0.21105  -0.19598
 Alpha  occ. eigenvalues --   -0.16210  -0.16029
 Alpha virt. eigenvalues --    0.27148   0.27695   0.28522   0.29618   0.30105
 Alpha virt. eigenvalues --    0.32045   0.46406   0.47053   0.48772   0.49740
 Alpha virt. eigenvalues --    0.50042   0.50415   0.50744   0.52123   0.52535

 Mulliken charges:
               1
     1  C   -0.074859
     2  C    0.000652
     3  C   -0.063799
     4  C   -0.090941
     5  C    0.088583
     6  C   -0.011574
     7  N   -0.282324
     8  C    0.015078
     9  C    0.129291
    10  C    0.034790
    11  C   -0.114403
    12  C   -0.107868
    13  C    0.042665
    14  N   -0.291840
    15  C   -0.014419
    16  C   -0.094073
    17  C   -0.100118
    18  C   -0.098854
    19  C   -0.014475
    20  C   -0.104262
    21  C   -0.063732
    22  C    0.317790
    23  O   -0.274706
    24  O   -0.256208
    25  C   -0.055232
    26  C   -0.078989
    27  C   -0.108983
    28  C    0.000290
    29  C   -0.073124
    30  C   -0.060870
    31  C   -0.091540
    32  C    0.087837
    33  C   -0.015533
    34  N   -0.287776
    35  C    0.020791
    36  C    0.128799
    37  C    0.040660
    38  C   -0.115661
    39  C   -0.104801
    40  C    0.028218
    41  N   -0.085924
    42  C   -0.007753
    43  C   -0.110730
    44  C   -0.102260
    45  C   -0.106534
    46  C   -0.012677
    47  C   -0.111614
    48  C   -0.067128
    49  C    0.320503
    50  O   -0.278957
    51  O   -0.253943
    52  C   -0.055701
    53  C   -0.078781
    54  O   -0.456496
    55  H    0.065304
    56  H    0.053398
    57  H    0.056891
    58  H    0.064802
    59  H    0.046550
    60  H    0.054270
    61  H    0.044687
    62  H    0.052173
    63  H    0.050662
    64  H    0.055977
    65  H    0.046086
    66  H    0.052890
    67  H    0.051123
    68  H    0.046398
    69  H    0.062563
    70  H    0.055864
    71  H    0.041686
    72  H    0.058888
    73  H    0.045514
    74  H    0.079354
    75  H    0.061403
    76  H    0.073678
    77  H    0.075329
    78  H    0.070474
    79  H    0.053616
    80  H    0.070006
    81  H    0.074945
    82  H    0.058730
    83  H    0.055524
    84  H    0.088784
    85  H    0.056054
    86  H    0.056885
    87  H    0.086082
    88  H    0.053080
    89  H    0.058517
    90  H    0.054191
    91  H    0.051797
    92  H    0.088679
    93  H    0.080350
    94  H    0.066254
    95  H    0.057634
    96  H    0.056895
    97  H    0.057747
    98  H    0.082180
    99  H    0.071872
   100  H    0.068828
   101  H    0.087626
   102  H    0.065926
   103  H    0.055274
   104  H    0.067264
   105  H    0.073142
   106  H    0.079070
   107  H    0.075750
   108  H    0.075105
   109  H    0.073566
   110  H    0.056177
 Sum of Mulliken charges =  -0.00000

 Dipole moment (field-independent basis, Debye):
    X=             -6.5981    Y=             -0.3090    Z=              1.5332  Tot=              6.7810
 Quadrupole moment (field-independent basis, Debye-Ang):
   XX=           -280.2215   YY=           -294.7975   ZZ=           -293.4177
   XY=             13.6651   XZ=              6.9211   YZ=              4.7333

 Summary of Natural Population Analysis:

                                       Natural Population
                Natural  -----------------------------------------------
    Atom  No    Charge         Core      Valence    Rydberg      Total
 -----------------------------------------------------------------------
      C    1   -0.05781      1.99992     4.05788    0.00000     6.05781
      C    2    0.01459      1.99990     3.98551    0.00000     5.98541
      C    3   -0.03591      1.99994     4.03597    0.00000     6.03591
      C    4   -0.08812      1.99993     4.08819    0.00000     6.08812
      C    5    0.11267      1.99985     3.88748    0.00000     5.88733
      C    6   -0.02071      1.99990     4.02081    0.00000     6.02071
      N    7   -0.27129      1.99998     5.27131    0.00000     7.27129
      C    8    0.01454      1.99996     3.98551    0.00000     5.98546
      C    9    0.17370      1.99996     3.82634    0.00000     5.82630
      C   10    0.06589      1.99994     3.93418    0.00000     5.93411
      C   11   -0.08379      1.99993     4.08385    0.00000     6.08379
      C   12   -0.07819      1.99996     4.07823    0.00000     6.07819
      C   13    0.06439      1.99998     3.93563    0.00000     5.93561
      N   14   -0.28080      1.99999     5.28081    0.00000     7.28080
      C   15    0.03988      1.99994     3.96018    0.00000     5.96012
      C   16   -0.05666      1.99996     4.05670    0.00000     6.05666
      C   17   -0.06412      1.99995     4.06417    0.00000     6.06412
      C   18   -0.06543      1.99994     4.06549    0.00000     6.06543
      C   19    0.03900      1.99995     3.96104    0.00000     5.96100
      C   20   -0.06642      1.99992     4.06649    0.00000     6.06642
      C   21   -0.07982      1.99994     4.07988    0.00000     6.07982
      C   22    0.40027      1.99991     3.59982    0.00000     5.59973
      O   23   -0.30873      1.99999     6.30874    0.00000     8.30873
      O   24   -0.26796      1.99999     6.26797    0.00000     8.26796
      C   25    0.03511      1.99984     3.96504    0.00000     5.96489
      C   26   -0.01691      1.99992     4.01699    0.00000     6.01691
      C   27   -0.08546      1.99996     4.08550    0.00000     6.08546
      C   28    0.01400      1.99990     3.98610    0.00000     5.98600
      C   29   -0.05243      1.99993     4.05251    0.00000     6.05243
      C   30   -0.03160      1.99994     4.03166    0.00000     6.03160
      C   31   -0.08942      1.99993     4.08949    0.00000     6.08942
      C   32    0.11126      1.99985     3.88888    0.00000     5.88874
      C   33   -0.03036      1.99990     4.03047    0.00000     6.03036
      N   34   -0.27629      1.99998     5.27631    0.00000     7.27629
      C   35    0.02194      1.99996     3.97810    0.00000     5.97806
      C   36    0.17160      1.99996     3.82844    0.00000     5.82840
      C   37    0.07327      1.99991     3.92682    0.00000     5.92673
      C   38   -0.08621      1.99994     4.08627    0.00000     6.08621
      C   39   -0.07254      1.99995     4.07258    0.00000     6.07254
      C   40    0.05010      1.99998     3.94992    0.00000     5.94990
      N   41    0.02610      1.99999     4.97392    0.00000     6.97390
      C   42    0.04360      1.99991     3.95649    0.00000     5.95640
      C   43   -0.08110      1.99997     4.08113    0.00000     6.08110
      C   44   -0.06992      1.99996     4.06996    0.00000     6.06992
      C   45   -0.08058      1.99994     4.08064    0.00000     6.08058
      C   46    0.03783      1.99992     3.96225    0.00000     5.96217
      C   47   -0.07536      1.99992     4.07543    0.00000     6.07536
      C   48   -0.08601      1.99995     4.08607    0.00000     6.08601
      C   49    0.40390      1.99991     3.59619    0.00000     5.59610
      O   50   -0.31337      1.99999     6.31338    0.00000     8.31337
      O   51   -0.26531      1.99999     6.26531    0.00000     8.26531
      C   52    0.03482      1.99984     3.96534    0.00000     5.96518
      C   53   -0.01589      1.99992     4.01597    0.00000     6.01589
      O   54   -0.50737      2.00000     6.50737    0.00000     8.50737
      H   55    0.03960      0.00000     0.96040    0.00000     0.96040
      H   56    0.02647      0.00000     0.97353    0.00000     0.97353
      H   57    0.03291      0.00000     0.96709    0.00000     0.96709
      H   58    0.03223      0.00000     0.96777    0.00000     0.96777
      H   59    0.02464      0.00000     0.97536    0.00000     0.97536
      H   60    0.03126      0.00000     0.96874    0.00000     0.96874
      H   61    0.02470      0.00000     0.97530    0.00000     0.97530
      H   62    0.03147      0.00000     0.96853    0.00000     0.96853
      H   63    0.02197      0.00000     0.97803    0.00000     0.97803
      H   64    0.03025      0.00000     0.96975    0.00000     0.96975
      H   65    0.02510      0.00000     0.97490    0.00000     0.97490
      H   66    0.03098      0.00000     0.96902    0.00000     0.96902
      H   67    0.02917      0.00000     0.97083    0.00000     0.97083
      H   68    0.02512      0.00000     0.97488    0.00000     0.97488
      H   69    0.03846      0.00000     0.96154    0.00000     0.96154
      H   70    0.03401      0.00000     0.96599    0.00000     0.96599
      H   71    0.01396      0.00000     0.98604    0.00000     0.98604
      H   72    0.03276      0.00000     0.96724    0.00000     0.96724
      H   73    0.02273      0.00000     0.97727    0.00000     0.97727
      H   74    0.05281      0.00000     0.94719    0.00000     0.94719
      H   75    0.03842      0.00000     0.96158    0.00000     0.96158
      H   76    0.04235      0.00000     0.95765    0.00000     0.95765
      H   77    0.04444      0.00000     0.95556    0.00000     0.95556
      H   78    0.03909      0.00000     0.96091    0.00000     0.96091
      H   79    0.02836      0.00000     0.97164    0.00000     0.97164
      H   80    0.04590      0.00000     0.95410    0.00000     0.95410
      H   81    0.05072      0.00000     0.94928    0.00000     0.94928
      H   82    0.04007      0.00000     0.95993    0.00000     0.95993
      H   83    0.03657      0.00000     0.96343    0.00000     0.96343
      H   84    0.05971      0.00000     0.94029    0.00000     0.94029
      H   85    0.02875      0.00000     0.97125    0.00000     0.97125
      H   86    0.03301      0.00000     0.96699    0.00000     0.96699
      H   87    0.05008      0.00000     0.94992    0.00000     0.94992
      H   88    0.03072      0.00000     0.96928    0.00000     0.96928
      H   89    0.03518      0.00000     0.96482    0.00000     0.96482
      H   90    0.03249      0.00000     0.96751    0.00000     0.96751
      H   91    0.03039      0.00000     0.96961    0.00000     0.96961
      H   92    0.05697      0.00000     0.94303    0.00000     0.94303
      H   93    0.04978      0.00000     0.95022    0.00000     0.95022
      H   94    0.04647      0.00000     0.95353    0.00000     0.95353
      H   95    0.03694      0.00000     0.96306    0.00000     0.96306
      H   96    0.03574      0.00000     0.96426    0.00000     0.96426
      H   97    0.03677      0.00000     0.96323    0.00000     0.96323
      H   98    0.05902      0.00000     0.94098    0.00000     0.94098
      H   99    0.04873      0.00000     0.95127    0.00000     0.95127
      H  100    0.03692      0.00000     0.96308    0.00000     0.96308
      H  101    0.05689      0.00000     0.94311    0.00000     0.94311
      H  102    0.04081      0.00000     0.95919    0.00000     0.95919
      H  103    0.03312      0.00000     0.96688    0.00000     0.96688
      H  104    0.04449      0.00000     0.95551    0.00000     0.95551
      H  105    0.04148      0.00000     0.95852    0.00000     0.95852
      H  106    0.04780      0.00000     0.95220    0.00000     0.95220
      H  107    0.04412      0.00000     0.95588    0.00000     0.95588
      H  108    0.05074      0.00000     0.94926    0.00000     0.94926
      H  109    0.04906      0.00000     0.95094    0.00000     0.95094
      H  110    0.03066      0.00000     0.96934    0.00000     0.96934
 =======================================================================
   * Total *   -0.00000    107.99668   286.00332    0.00000   394.00000

 Normal termination of Gaussian 16 at Thu May 30 08:37:12 2024.
