 Gaussian 16, Revision B.01,
 Gaussian 16:  ES64L-G16RevB.01 20-Dec-2017

 ----------------------------------------------
 # nmr=giao hf/sto-3g pop=nbo geom=connectivity
 ----------------------------------------------

 ------------------
 pleiokomenine_C_1a
 ------------------
 Symbolic Z-matrix:
 Charge =  0 Multiplicity = 1

                         Standard orientation:
 ---------------------------------------------------------------------
 Center     Atomic      Atomic             Coordinates (Angstroms)
 Number     Number       Type             X           Y           Z
 ---------------------------------------------------------------------
      1          6           0       -1.840376   -1.618663   -1.716182
      2          6           0       -1.165635   -2.845756   -1.725593
      3          6           0       -1.549721   -3.854789   -0.817964
      4          6           0       -2.574865   -3.642744    0.113915
      5          6           0       -3.196750   -2.406465    0.155638
      6          6           0       -2.837842   -1.417710   -0.776159
      7          7           0       -4.174569   -1.943523    1.080672
      8          6           0       -3.698946   -0.201020   -0.555224
      9          6           0       -4.032125   -0.465492    0.963998
     10          6           0       -3.105839    1.207826   -0.707369
     11          6           0       -2.800673    0.015280    1.851492
     12          6           0       -2.553763    1.520498    1.691924
     13          6           0       -3.451495    2.059903    0.561637
     14          7           0       -3.651290    1.702456   -1.976164
     15          6           0       -3.508117    3.134250   -2.187230
     16          6           0       -3.877525    4.007702   -0.988640
     17          6           0       -3.166299    3.542471    0.282042
     18          6           0       -4.829000   -0.266058   -1.610732
     19          6           0       -4.982735    1.149601   -2.151857
     20          6           0       -4.920184    1.865125    1.071913
     21          6           0       -5.211443    0.389685    1.460567
     22          6           0       -6.603895   -0.051655    1.045468
     23          8           0       -7.317299    0.530372    0.237519
     24          8           0       -6.994615   -1.146713    1.757148
     25          6           0       -8.279975   -1.650553    1.396248
     26          6           0       -4.192469   -2.592853    2.382402
     27          6           0        0.012051   -3.050996   -2.652250
     28          6           0        1.346255   -2.768188   -1.991921
     29          6           0        1.633313   -1.485998   -1.501182
     30          6           0        2.301968   -3.795008   -1.839047
     31          6           0        3.531967   -3.559918   -1.207952
     32          6           0        3.808682   -2.290141   -0.732974
     33          6           0        2.846679   -1.272853   -0.867661
     34          7           0        4.993518   -1.823617   -0.094879
     35          6           0        3.336820   -0.046283   -0.140860
     36          6           0        4.879053   -0.354789   -0.273980
     37          6           0        3.057606    1.366500   -0.672662
     38          6           0        5.360483    0.023537   -1.738823
     39          6           0        5.129312    1.505202   -2.034015
     40          6           0        4.383660    2.167926   -0.855105
     41          7           0        2.064577    1.998194    0.297488
     42          6           0        2.231379    3.493357    0.437397
     43          6           0        2.695949    4.112346   -0.864024
     44          6           0        4.118370    3.656231   -1.188633
     45          6           0        2.663349   -0.112517    1.249834
     46          6           0        2.277920    1.303712    1.611311
     47          6           0        5.336819    2.019288    0.379005
     48          6           0        5.736373    0.536307    0.641986
     49          6           0        5.732759    0.185424    2.117914
     50          8           0        5.140362    0.817733    2.982956
     51          8           0        6.530831   -0.889745    2.361624
     52          6           0        6.547142   -1.311895    3.725428
     53          6           0        6.222678   -2.533700   -0.416274
     54          8           0        0.782221    1.748404   -0.146976
     55          1           0       -1.574458   -0.822467   -2.406297
     56          1           0       -1.027888   -4.809171   -0.817776
     57          1           0       -2.840020   -4.431925    0.807046
     58          1           0       -2.014280    1.165117   -0.817812
     59          1           0       -1.879278   -0.523781    1.597918
     60          1           0       -2.981233   -0.203065    2.911900
     61          1           0       -2.767288    2.036646    2.636467
     62          1           0       -1.493212    1.699351    1.480002
     63          1           0       -2.457156    3.328557   -2.438136
     64          1           0       -4.080456    3.450548   -3.067850
     65          1           0       -3.595799    5.046284   -1.198532
     66          1           0       -4.963262    4.005982   -0.843223
     67          1           0       -2.086232    3.697475    0.159409
     68          1           0       -3.477254    4.165451    1.129088
     69          1           0       -4.541119   -0.906408   -2.457463
     70          1           0       -5.765424   -0.685634   -1.244200
     71          1           0       -5.270198    1.130880   -3.208586
     72          1           0       -5.754124    1.703929   -1.615679
     73          1           0       -5.644558    2.252003    0.355080
     74          1           0       -5.071242    2.484468    1.967923
     75          1           0       -5.239755    0.360087    2.560850
     76          1           0       -8.306929   -1.914121    0.334231
     77          1           0       -8.464984   -2.555860    1.980923
     78          1           0       -9.057498   -0.918488    1.635290
     79          1           0       -3.197840   -2.628175    2.841127
     80          1           0       -4.573534   -3.615861    2.293125
     81          1           0       -4.858842   -2.063886    3.070453
     82          1           0       -0.015730   -4.078560   -3.037400
     83          1           0       -0.085726   -2.408553   -3.537281
     84          1           0        0.904453   -0.680809   -1.563840
     85          1           0        2.085336   -4.796347   -2.205203
     86          1           0        4.241011   -4.371914   -1.098039
     87          1           0        2.526550    1.333850   -1.634617
     88          1           0        4.856413   -0.573208   -2.509051
     89          1           0        6.428484   -0.200718   -1.859831
     90          1           0        6.091659    2.002515   -2.211111
     91          1           0        4.556152    1.604827   -2.964790
     92          1           0        1.256654    3.886132    0.748589
     93          1           0        2.951101    3.692278    1.237012
     94          1           0        2.021960    3.827435   -1.681004
     95          1           0        2.670582    5.205435   -0.794966
     96          1           0        4.302602    3.863366   -2.250280
     97          1           0        4.825699    4.291234   -0.639916
     98          1           0        3.269658   -0.594507    2.019441
     99          1           0        1.731093   -0.694508    1.218058
    100          1           0        3.070186    1.819668    2.150878
    101          1           0        1.348950    1.369829    2.186983
    102          1           0        4.901824    2.495629    1.259913
    103          1           0        6.260587    2.584170    0.187840
    104          1           0        6.793474    0.447647    0.347368
    105          1           0        6.983402   -0.534217    4.359843
    106          1           0        7.170932   -2.207210    3.795244
    107          1           0        5.537148   -1.566955    4.061673
    108          1           0        7.091250   -2.008563   -0.007465
    109          1           0        6.214421   -3.533291    0.031269
    110          1           0        6.370577   -2.634327   -1.497436
 ---------------------------------------------------------------------

 SCF Done:  E(RHF) =  -2300.22093594     A.U. after   16 cycles

      1  C    Isotropic =   123.6048   Anisotropy =   148.8151

      2  C    Isotropic =   120.7799   Anisotropy =   158.9682

      3  C    Isotropic =   119.8982   Anisotropy =   154.4326

      4  C    Isotropic =   133.9159   Anisotropy =   143.5388

      5  C    Isotropic =   108.2056   Anisotropy =   129.1137

      6  C    Isotropic =   116.7983   Anisotropy =   143.1606

      7  N    Isotropic =   272.9341   Anisotropy =    80.5374

      8  C    Isotropic =   196.0591   Anisotropy =    12.3864

      9  C    Isotropic =   180.6264   Anisotropy =    44.8895

     10  C    Isotropic =   190.2049   Anisotropy =    29.5602

     11  C    Isotropic =   213.6613   Anisotropy =    19.9741

     12  C    Isotropic =   213.4192   Anisotropy =    20.0111

     13  C    Isotropic =   213.4563   Anisotropy =     9.5778

     14  N    Isotropic =   303.3176   Anisotropy =    56.7401

     15  C    Isotropic =   205.2171   Anisotropy =    33.7814

     16  C    Isotropic =   223.9828   Anisotropy =     8.1329

     17  C    Isotropic =   215.2942   Anisotropy =    18.8926

     18  C    Isotropic =   210.6602   Anisotropy =    36.9083

     19  C    Isotropic =   199.9508   Anisotropy =    42.8884

     20  C    Isotropic =   212.1051   Anisotropy =    22.1844

     21  C    Isotropic =   208.9064   Anisotropy =    11.7514

     22  C    Isotropic =    96.1429   Anisotropy =    98.9179

     23  O    Isotropic =  -134.0520   Anisotropy =   886.0541

     24  O    Isotropic =   284.4619   Anisotropy =   139.4831

     25  C    Isotropic =   197.4589   Anisotropy =    57.8116

     26  C    Isotropic =   209.8745   Anisotropy =    40.7213

     27  C    Isotropic =   206.3504   Anisotropy =    16.4443

     28  C    Isotropic =   118.8406   Anisotropy =   159.0621

     29  C    Isotropic =   123.1993   Anisotropy =   156.4336

     30  C    Isotropic =   119.0680   Anisotropy =   149.0040

     31  C    Isotropic =   133.9123   Anisotropy =   141.9089

     32  C    Isotropic =   109.5359   Anisotropy =   125.5475

     33  C    Isotropic =   118.8505   Anisotropy =   137.3009

     34  N    Isotropic =   274.5507   Anisotropy =    82.0935

     35  C    Isotropic =   196.5432   Anisotropy =    15.8587

     36  C    Isotropic =   181.5673   Anisotropy =    43.1082

     37  C    Isotropic =   179.3287   Anisotropy =    50.8537

     38  C    Isotropic =   213.8115   Anisotropy =    19.7397

     39  C    Isotropic =   212.2082   Anisotropy =    22.2802

     40  C    Isotropic =   211.7621   Anisotropy =     9.9206

     41  N    Isotropic =   229.5845   Anisotropy =    31.5994

     42  C    Isotropic =   191.4003   Anisotropy =    54.6578

     43  C    Isotropic =   220.8091   Anisotropy =     7.7105

     44  C    Isotropic =   214.2040   Anisotropy =    26.1602

     45  C    Isotropic =   210.9052   Anisotropy =    37.1168

     46  C    Isotropic =   187.9138   Anisotropy =    59.1405

     47  C    Isotropic =   210.6312   Anisotropy =    24.4372

     48  C    Isotropic =   209.0132   Anisotropy =    10.2277

     49  C    Isotropic =    96.6082   Anisotropy =    98.2928

     50  O    Isotropic =  -130.7143   Anisotropy =   884.3605

     51  O    Isotropic =   283.7628   Anisotropy =   139.1866

     52  C    Isotropic =   197.2209   Anisotropy =    57.5954

     53  C    Isotropic =   209.9218   Anisotropy =    42.3280

     54  O    Isotropic =    19.8601   Anisotropy =   487.0416

     55  H    Isotropic =    25.2333   Anisotropy =    12.7656

     56  H    Isotropic =    26.0276   Anisotropy =     7.0183

     57  H    Isotropic =    26.7327   Anisotropy =     7.7751

     58  H    Isotropic =    30.9141   Anisotropy =    14.0710

     59  H    Isotropic =    33.0008   Anisotropy =    10.6542

     60  H    Isotropic =    32.3554   Anisotropy =    12.1738

     61  H    Isotropic =    32.5093   Anisotropy =    13.5495

     62  H    Isotropic =    31.8789   Anisotropy =    18.5197

     63  H    Isotropic =    31.5587   Anisotropy =    14.1728

     64  H    Isotropic =    31.8081   Anisotropy =    15.6581

     65  H    Isotropic =    32.6391   Anisotropy =    17.1954

     66  H    Isotropic =    32.5355   Anisotropy =    12.0033

     67  H    Isotropic =    32.2265   Anisotropy =    14.6981

     68  H    Isotropic =    32.5273   Anisotropy =    13.7929

     69  H    Isotropic =    32.2650   Anisotropy =    11.7853

     70  H    Isotropic =    32.9121   Anisotropy =    11.7252

     71  H    Isotropic =    31.8309   Anisotropy =    16.4128

     72  H    Isotropic =    31.9033   Anisotropy =     9.8578

     73  H    Isotropic =    31.3614   Anisotropy =    10.3021

     74  H    Isotropic =    32.2485   Anisotropy =    14.3181

     75  H    Isotropic =    31.2381   Anisotropy =    12.0251

     76  H    Isotropic =    30.6335   Anisotropy =     8.0592

     77  H    Isotropic =    30.5704   Anisotropy =    12.1292

     78  H    Isotropic =    30.5794   Anisotropy =    11.8536

     79  H    Isotropic =    32.0359   Anisotropy =    10.4252

     80  H    Isotropic =    30.8354   Anisotropy =    14.7334

     81  H    Isotropic =    30.9556   Anisotropy =    10.8328

     82  H    Isotropic =    29.8673   Anisotropy =    12.5651

     83  H    Isotropic =    29.9506   Anisotropy =     8.0994

     84  H    Isotropic =    25.3569   Anisotropy =    15.3606

     85  H    Isotropic =    25.6143   Anisotropy =     6.6083

     86  H    Isotropic =    26.5673   Anisotropy =     7.9016

     87  H    Isotropic =    30.5295   Anisotropy =     7.3801

     88  H    Isotropic =    32.8691   Anisotropy =     8.5740

     89  H    Isotropic =    32.1532   Anisotropy =    14.0729

     90  H    Isotropic =    32.1283   Anisotropy =    15.3947

     91  H    Isotropic =    32.3550   Anisotropy =    12.5143

     92  H    Isotropic =    30.5496   Anisotropy =    13.3947

     93  H    Isotropic =    31.8877   Anisotropy =     8.4187

     94  H    Isotropic =    31.5514   Anisotropy =    11.9622

     95  H    Isotropic =    32.1523   Anisotropy =    17.1981

     96  H    Isotropic =    32.1464   Anisotropy =    13.8652

     97  H    Isotropic =    32.3848   Anisotropy =    13.6244

     98  H    Isotropic =    32.9582   Anisotropy =    10.7088

     99  H    Isotropic =    32.3314   Anisotropy =    13.6454

    100  H    Isotropic =    31.5372   Anisotropy =     9.1400

    101  H    Isotropic =    30.9079   Anisotropy =    13.0839

    102  H    Isotropic =    31.7957   Anisotropy =     8.8288

    103  H    Isotropic =    32.0803   Anisotropy =    15.0319

    104  H    Isotropic =    31.1242   Anisotropy =    13.0862

    105  H    Isotropic =    30.5860   Anisotropy =    11.6604

    106  H    Isotropic =    30.5154   Anisotropy =    12.3206

    107  H    Isotropic =    30.6784   Anisotropy =     7.3709

    108  H    Isotropic =    30.9390   Anisotropy =    11.0929

    109  H    Isotropic =    30.7068   Anisotropy =    14.5867

    110  H    Isotropic =    31.8789   Anisotropy =    11.9827

 The electronic state is 1-A.
 Alpha  occ. eigenvalues --  -20.31468 -20.29679 -20.25411 -20.23576 -19.91886
 Alpha  occ. eigenvalues --  -15.48123 -15.33954 -15.32344 -15.28843 -11.17438
 Alpha  occ. eigenvalues --  -11.15476 -11.11160 -11.10335 -11.09768 -11.09294
 Alpha  occ. eigenvalues --  -11.09185 -11.08462 -11.08280 -11.07980 -11.07410
 Alpha  occ. eigenvalues --  -11.07407 -11.07089 -11.06896 -11.05938 -11.05881
 Alpha  occ. eigenvalues --  -11.05523 -11.05422 -11.05330 -11.05235 -11.05177
 Alpha  occ. eigenvalues --  -11.05133 -11.05048 -11.04756 -11.04653 -11.04332
 Alpha  occ. eigenvalues --  -11.04166 -11.03609 -11.03579 -11.02974 -11.02494
 Alpha  occ. eigenvalues --  -11.02464 -11.02371 -11.02291 -11.01839 -11.01753
 Alpha  occ. eigenvalues --  -11.01555 -11.01515 -11.01320 -11.01239 -11.00900
 Alpha  occ. eigenvalues --  -11.00638 -11.00508 -11.00241 -11.00218  -1.38692
 Alpha  occ. eigenvalues --   -1.36888  -1.28583  -1.28279  -1.26662  -1.21452
 Alpha  occ. eigenvalues --   -1.20038  -1.17264  -1.11907  -1.08562  -1.07963
 Alpha  occ. eigenvalues --   -1.06803  -1.06099  -1.03643  -1.03275  -1.00635
 Alpha  occ. eigenvalues --   -0.99677  -0.98802  -0.97795  -0.97097  -0.96673
 Alpha  occ. eigenvalues --   -0.95313  -0.94831  -0.93317  -0.92942  -0.92641
 Alpha  occ. eigenvalues --   -0.92110  -0.90660  -0.90463  -0.89167  -0.87534
 Alpha  occ. eigenvalues --   -0.86028  -0.84114  -0.82830  -0.82121  -0.81049
 Alpha  occ. eigenvalues --   -0.80457  -0.78576  -0.78238  -0.77753  -0.76187
 Alpha  occ. eigenvalues --   -0.75874  -0.74538  -0.73075  -0.72717  -0.71820
 Alpha  occ. eigenvalues --   -0.70448  -0.69726  -0.68978  -0.68133  -0.66966
 Alpha  occ. eigenvalues --   -0.65594  -0.65058  -0.64624  -0.63469  -0.62706
 Alpha  occ. eigenvalues --   -0.62216  -0.62085  -0.61318  -0.61073  -0.61009
 Alpha  occ. eigenvalues --   -0.59883  -0.59586  -0.59497  -0.59080  -0.58532
 Alpha  occ. eigenvalues --   -0.58396  -0.57668  -0.57348  -0.57061  -0.56817
 Alpha  occ. eigenvalues --   -0.56742  -0.56513  -0.56026  -0.55530  -0.55408
 Alpha  occ. eigenvalues --   -0.55278  -0.54777  -0.54385  -0.54087  -0.53613
 Alpha  occ. eigenvalues --   -0.53320  -0.52916  -0.52447  -0.52292  -0.51827
 Alpha  occ. eigenvalues --   -0.51609  -0.51189  -0.51048  -0.50533  -0.49817
 Alpha  occ. eigenvalues --   -0.49595  -0.49176  -0.48948  -0.48692  -0.48353
 Alpha  occ. eigenvalues --   -0.48214  -0.47784  -0.47681  -0.47220  -0.46786
 Alpha  occ. eigenvalues --   -0.46463  -0.46212  -0.45810  -0.45375  -0.44937
 Alpha  occ. eigenvalues --   -0.44690  -0.44524  -0.44077  -0.43631  -0.43244
 Alpha  occ. eigenvalues --   -0.43202  -0.42897  -0.42576  -0.42321  -0.42150
 Alpha  occ. eigenvalues --   -0.41710  -0.41337  -0.41202  -0.40828  -0.40576
 Alpha  occ. eigenvalues --   -0.40028  -0.39745  -0.39254  -0.38991  -0.37806
 Alpha  occ. eigenvalues --   -0.36884  -0.35828  -0.35698  -0.35009  -0.34692
 Alpha  occ. eigenvalues --   -0.34080  -0.33103  -0.32449  -0.32362  -0.30905
 Alpha  occ. eigenvalues --   -0.26670  -0.25825  -0.24525  -0.21216  -0.19582
 Alpha  occ. eigenvalues --   -0.15660  -0.15575
 Alpha virt. eigenvalues --    0.27148   0.27824   0.28449   0.29599   0.30005
 Alpha virt. eigenvalues --    0.31489   0.45992   0.47021   0.48798   0.49909
 Alpha virt. eigenvalues --    0.50070   0.50358   0.50439   0.51585   0.52594

 Mulliken charges:
               1
     1  C   -0.071119
     2  C   -0.000348
     3  C   -0.063322
     4  C   -0.090697
     5  C    0.088304
     6  C   -0.009565
     7  N   -0.286100
     8  C    0.018486
     9  C    0.127042
    10  C    0.037829
    11  C   -0.114575
    12  C   -0.109597
    13  C    0.029715
    14  N   -0.291671
    15  C   -0.013980
    16  C   -0.107687
    17  C   -0.102458
    18  C   -0.104720
    19  C   -0.019160
    20  C   -0.110625
    21  C   -0.066411
    22  C    0.319309
    23  O   -0.277894
    24  O   -0.255729
    25  C   -0.055709
    26  C   -0.079306
    27  C   -0.109316
    28  C    0.002572
    29  C   -0.073568
    30  C   -0.061671
    31  C   -0.090765
    32  C    0.086186
    33  C   -0.013127
    34  N   -0.286784
    35  C    0.017439
    36  C    0.128352
    37  C    0.039671
    38  C   -0.116472
    39  C   -0.103705
    40  C    0.027694
    41  N   -0.079894
    42  C   -0.008547
    43  C   -0.103632
    44  C   -0.104436
    45  C   -0.106437
    46  C   -0.016249
    47  C   -0.109039
    48  C   -0.068116
    49  C    0.320268
    50  O   -0.279505
    51  O   -0.254334
    52  C   -0.055709
    53  C   -0.079835
    54  O   -0.458134
    55  H    0.068017
    56  H    0.053866
    57  H    0.056271
    58  H    0.075465
    59  H    0.057234
    60  H    0.046319
    61  H    0.041858
    62  H    0.069407
    63  H    0.056743
    64  H    0.057574
    65  H    0.050278
    66  H    0.047685
    67  H    0.057970
    68  H    0.046802
    69  H    0.061565
    70  H    0.060890
    71  H    0.054581
    72  H    0.050074
    73  H    0.065922
    74  H    0.048678
    75  H    0.063185
    76  H    0.074370
    77  H    0.075876
    78  H    0.071160
    79  H    0.054683
    80  H    0.069817
    81  H    0.075188
    82  H    0.056250
    83  H    0.059670
    84  H    0.083792
    85  H    0.056061
    86  H    0.057715
    87  H    0.090005
    88  H    0.059112
    89  H    0.052524
    90  H    0.052308
    91  H    0.054748
    92  H    0.091301
    93  H    0.059956
    94  H    0.074550
    95  H    0.064492
    96  H    0.058410
    97  H    0.053201
    98  H    0.070484
    99  H    0.080600
   100  H    0.073343
   101  H    0.088220
   102  H    0.062359
   103  H    0.055571
   104  H    0.067710
   105  H    0.073270
   106  H    0.079192
   107  H    0.075658
   108  H    0.075566
   109  H    0.073288
   110  H    0.056243
 Sum of Mulliken charges =  -0.00000

 Dipole moment (field-independent basis, Debye):
    X=              5.8117    Y=              0.9141    Z=              2.0214  Tot=              6.2207
 Quadrupole moment (field-independent basis, Debye-Ang):
   XX=           -274.0786   YY=           -290.8101   ZZ=           -296.2717
   XY=              7.9900   XZ=             -9.7057   YZ=             -2.9286

 Summary of Natural Population Analysis:

                                       Natural Population
                Natural  -----------------------------------------------
    Atom  No    Charge         Core      Valence    Rydberg      Total
 -----------------------------------------------------------------------
      C    1   -0.05257      1.99993     4.05264    0.00000     6.05257
      C    2    0.01242      1.99990     3.98768    0.00000     5.98758
      C    3   -0.03495      1.99994     4.03501    0.00000     6.03495
      C    4   -0.08766      1.99993     4.08773    0.00000     6.08766
      C    5    0.11180      1.99985     3.88835    0.00000     5.88820
      C    6   -0.02042      1.99990     4.02052    0.00000     6.02042
      N    7   -0.27461      1.99998     5.27463    0.00000     7.27461
      C    8    0.01963      1.99996     3.98042    0.00000     5.98037
      C    9    0.17083      1.99996     3.82921    0.00000     5.82917
      C   10    0.07117      1.99993     3.92890    0.00000     5.92883
      C   11   -0.08422      1.99994     4.08429    0.00000     6.08422
      C   12   -0.07864      1.99996     4.07868    0.00000     6.07864
      C   13    0.05236      1.99998     3.94766    0.00000     5.94764
      N   14   -0.28013      1.99999     5.28014    0.00000     7.28013
      C   15    0.03942      1.99994     3.96065    0.00000     5.96058
      C   16   -0.07358      1.99997     4.07362    0.00000     6.07358
      C   17   -0.06895      1.99996     4.06899    0.00000     6.06895
      C   18   -0.07430      1.99995     4.07435    0.00000     6.07430
      C   19    0.03400      1.99994     3.96606    0.00000     5.96600
      C   20   -0.07383      1.99993     4.07391    0.00000     6.07383
      C   21   -0.08433      1.99994     4.08439    0.00000     6.08433
      C   22    0.40310      1.99991     3.59699    0.00000     5.59690
      O   23   -0.31213      1.99999     6.31215    0.00000     8.31213
      O   24   -0.26741      1.99999     6.26741    0.00000     8.26741
      C   25    0.03462      1.99984     3.96554    0.00000     5.96538
      C   26   -0.01678      1.99992     4.01686    0.00000     6.01678
      C   27   -0.08621      1.99996     4.08625    0.00000     6.08621
      C   28    0.01785      1.99990     3.98225    0.00000     5.98215
      C   29   -0.05462      1.99993     4.05470    0.00000     6.05462
      C   30   -0.03331      1.99995     4.03336    0.00000     6.03331
      C   31   -0.08823      1.99993     4.08830    0.00000     6.08823
      C   32    0.10923      1.99985     3.89092    0.00000     5.89077
      C   33   -0.02589      1.99990     4.02600    0.00000     6.02589
      N   34   -0.27522      1.99998     5.27524    0.00000     7.27522
      C   35    0.01759      1.99996     3.98245    0.00000     5.98241
      C   36    0.17155      1.99996     3.82849    0.00000     5.82845
      C   37    0.07166      1.99991     3.92843    0.00000     5.92834
      C   38   -0.08859      1.99994     4.08865    0.00000     6.08859
      C   39   -0.07219      1.99996     4.07223    0.00000     6.07219
      C   40    0.04991      1.99998     3.95011    0.00000     5.95009
      N   41    0.03399      1.99999     4.96602    0.00000     6.96601
      C   42    0.04432      1.99990     3.95578    0.00000     5.95568
      C   43   -0.07438      1.99997     4.07441    0.00000     6.07438
      C   44   -0.07068      1.99995     4.07073    0.00000     6.07068
      C   45   -0.08180      1.99995     4.08185    0.00000     6.08180
      C   46    0.03270      1.99992     3.96738    0.00000     5.96730
      C   47   -0.07168      1.99993     4.07176    0.00000     6.07168
      C   48   -0.08605      1.99994     4.08611    0.00000     6.08605
      C   49    0.40309      1.99991     3.59700    0.00000     5.59691
      O   50   -0.31372      1.99998     6.31374    0.00000     8.31372
      O   51   -0.26566      1.99999     6.26567    0.00000     8.26566
      C   52    0.03485      1.99984     3.96532    0.00000     5.96515
      C   53   -0.01722      1.99992     4.01730    0.00000     6.01722
      O   54   -0.51044      2.00000     6.51044    0.00000     8.51044
      H   55    0.04177      0.00000     0.95823    0.00000     0.95823
      H   56    0.02692      0.00000     0.97308    0.00000     0.97308
      H   57    0.03233      0.00000     0.96767    0.00000     0.96767
      H   58    0.04237      0.00000     0.95763    0.00000     0.95763
      H   59    0.03399      0.00000     0.96601    0.00000     0.96601
      H   60    0.02452      0.00000     0.97548    0.00000     0.97548
      H   61    0.02164      0.00000     0.97836    0.00000     0.97836
      H   62    0.04652      0.00000     0.95348    0.00000     0.95348
      H   63    0.02948      0.00000     0.97052    0.00000     0.97052
      H   64    0.03210      0.00000     0.96790    0.00000     0.96790
      H   65    0.03069      0.00000     0.96931    0.00000     0.96931
      H   66    0.02729      0.00000     0.97271    0.00000     0.97271
      H   67    0.03650      0.00000     0.96350    0.00000     0.96350
      H   68    0.02632      0.00000     0.97368    0.00000     0.97368
      H   69    0.04043      0.00000     0.95957    0.00000     0.95957
      H   70    0.03852      0.00000     0.96148    0.00000     0.96148
      H   71    0.02868      0.00000     0.97132    0.00000     0.97132
      H   72    0.02116      0.00000     0.97884    0.00000     0.97884
      H   73    0.04084      0.00000     0.95916    0.00000     0.95916
      H   74    0.02676      0.00000     0.97324    0.00000     0.97324
      H   75    0.04052      0.00000     0.95948    0.00000     0.95948
      H   76    0.04294      0.00000     0.95706    0.00000     0.95706
      H   77    0.04496      0.00000     0.95504    0.00000     0.95504
      H   78    0.03974      0.00000     0.96026    0.00000     0.96026
      H   79    0.02938      0.00000     0.97062    0.00000     0.97062
      H   80    0.04566      0.00000     0.95434    0.00000     0.95434
      H   81    0.05088      0.00000     0.94912    0.00000     0.94912
      H   82    0.03739      0.00000     0.96261    0.00000     0.96261
      H   83    0.04100      0.00000     0.95900    0.00000     0.95900
      H   84    0.05574      0.00000     0.94426    0.00000     0.94426
      H   85    0.02874      0.00000     0.97126    0.00000     0.97126
      H   86    0.03374      0.00000     0.96626    0.00000     0.96626
      H   87    0.05385      0.00000     0.94615    0.00000     0.94615
      H   88    0.03617      0.00000     0.96383    0.00000     0.96383
      H   89    0.03068      0.00000     0.96932    0.00000     0.96932
      H   90    0.03117      0.00000     0.96883    0.00000     0.96883
      H   91    0.03325      0.00000     0.96675    0.00000     0.96675
      H   92    0.05939      0.00000     0.94061    0.00000     0.94061
      H   93    0.02964      0.00000     0.97036    0.00000     0.97036
      H   94    0.05247      0.00000     0.94753    0.00000     0.94753
      H   95    0.04442      0.00000     0.95558    0.00000     0.95558
      H   96    0.03672      0.00000     0.96328    0.00000     0.96328
      H   97    0.03181      0.00000     0.96819    0.00000     0.96819
      H   98    0.04867      0.00000     0.95133    0.00000     0.95133
      H   99    0.05806      0.00000     0.94194    0.00000     0.94194
      H  100    0.04146      0.00000     0.95854    0.00000     0.95854
      H  101    0.05789      0.00000     0.94211    0.00000     0.94211
      H  102    0.03746      0.00000     0.96254    0.00000     0.96254
      H  103    0.03282      0.00000     0.96718    0.00000     0.96718
      H  104    0.04456      0.00000     0.95544    0.00000     0.95544
      H  105    0.04160      0.00000     0.95840    0.00000     0.95840
      H  106    0.04791      0.00000     0.95209    0.00000     0.95209
      H  107    0.04403      0.00000     0.95597    0.00000     0.95597
      H  108    0.05116      0.00000     0.94884    0.00000     0.94884
      H  109    0.04884      0.00000     0.95116    0.00000     0.95116
      H  110    0.03076      0.00000     0.96924    0.00000     0.96924
 =======================================================================
   * Total *   -0.00000    107.99670   286.00330    0.00000   394.00000

 Normal termination of Gaussian 16 at Thu May 30 09:06:50 2024.
