 Gaussian 16, Revision B.01,
 Gaussian 16:  ES64L-G16RevB.01 20-Dec-2017

 ----------------------------------------------
 # nmr=giao hf/sto-3g pop=nbo geom=connectivity
 ----------------------------------------------

 ------------------
 pleiokomenine_C_1a
 ------------------
 Symbolic Z-matrix:
 Charge =  0 Multiplicity = 1

                         Standard orientation:
 ---------------------------------------------------------------------
 Center     Atomic      Atomic             Coordinates (Angstroms)
 Number     Number       Type             X           Y           Z
 ---------------------------------------------------------------------
      1          6           0        2.420449   -0.264371   -1.409155
      2          6           0        1.196358   -0.940253   -1.323675
      3          6           0        0.997377   -1.885959   -0.295048
      4          6           0        2.004562   -2.174788    0.634480
      5          6           0        3.220362   -1.522734    0.528670
      6          6           0        3.408279   -0.561620   -0.480860
      7          7           0        4.380093   -1.694365    1.332600
      8          6           0        4.764853    0.072317   -0.297134
      9          6           0        5.448902   -1.123387    0.475298
     10          6           0        5.624365    0.443507   -1.514529
     11          6           0        5.911179   -2.219811   -0.580964
     12          6           0        6.949956   -1.650941   -1.555598
     13          6           0        7.070627   -0.131338   -1.329562
     14          7           0        5.523440    1.901654   -1.612621
     15          6           0        6.514544    2.535035   -2.469778
     16          6           0        7.947300    2.036502   -2.284549
     17          6           0        8.019830    0.511098   -2.351330
     18          6           0        4.519874    1.416780    0.430399
     19          6           0        5.404969    2.441449   -0.266932
     20          6           0        7.633594    0.029419    0.123668
     21          6           0        6.752108   -0.698555    1.174958
     22          6           0        6.615359    0.096919    2.461403
     23          8           0        6.881963    1.286203    2.584981
     24          8           0        6.230614   -0.710624    3.489043
     25          6           0        6.034814   -0.029195    4.727634
     26          6           0        4.537795   -2.986987    1.980872
     27          6           0        0.085323   -0.637598   -2.303561
     28          6           0       -1.042244    0.176990   -1.711061
     29          6           0       -2.243212   -0.445746   -1.346235
     30          6           0       -0.880609    1.558370   -1.480003
     31          6           0       -1.904669    2.323522   -0.908943
     32          6           0       -3.097133    1.705123   -0.573231
     33          6           0       -3.247883    0.322324   -0.775996
     34          7           0       -4.264087    2.298769   -0.023543
     35          6           0       -4.578780   -0.112393   -0.211534
     36          6           0       -5.306307    1.289782   -0.321465
     37          6           0       -5.430347   -1.173999   -0.928930
     38          6           0       -5.815276    1.482694   -1.817069
     39          6           0       -6.838600    0.403897   -2.199711
     40          6           0       -6.899781   -0.649957   -1.073882
     41          7           0       -5.260560   -2.445417   -0.115296
     42          6           0       -6.343508   -3.466818   -0.345664
     43          6           0       -7.756970   -2.922805   -0.417779
     44          6           0       -7.849082   -1.795331   -1.439164
     45          6           0       -4.290158   -0.714643    1.188578
     46          6           0       -5.135613   -1.976437    1.299733
     47          6           0       -7.445695    0.124200    0.174738
     48          6           0       -6.585083    1.362857    0.527057
     49          6           0       -6.409118    1.525234    2.026581
     50          8           0       -6.604953    0.638347    2.849150
     51          8           0       -6.075616    2.806501    2.340795
     52          6           0       -5.844020    3.028112    3.731943
     53          6           0       -4.470005    3.711786   -0.303807
     54          8           0       -4.071260   -3.064656   -0.476886
     55          1           0        2.590912    0.497038   -2.164664
     56          1           0        0.039730   -2.398021   -0.208720
     57          1           0        1.815372   -2.899647    1.417370
     58          1           0        5.195245    0.027745   -2.436380
     59          1           0        6.344027   -3.089383   -0.069941
     60          1           0        5.063519   -2.613968   -1.155258
     61          1           0        7.917848   -2.144512   -1.401488
     62          1           0        6.650554   -1.877865   -2.586381
     63          1           0        6.220799    2.344920   -3.510369
     64          1           0        6.481843    3.625040   -2.353212
     65          1           0        8.581751    2.461438   -3.071333
     66          1           0        8.351419    2.398893   -1.333121
     67          1           0        7.749664    0.188773   -3.365411
     68          1           0        9.052462    0.182394   -2.183910
     69          1           0        4.676630    1.382115    1.507907
     70          1           0        3.479654    1.751322    0.305378
     71          1           0        4.925939    3.426429   -0.274381
     72          1           0        6.365520    2.551410    0.239008
     73          1           0        8.640301   -0.411050    0.166919
     74          1           0        7.789780    1.078685    0.374497
     75          1           0        7.309723   -1.598835    1.476282
     76          1           0        5.670958   -0.755463    5.459709
     77          1           0        6.981546    0.383538    5.089362
     78          1           0        5.282755    0.758767    4.619819
     79          1           0        4.425487   -3.818160    1.275449
     80          1           0        3.801001   -3.105291    2.782616
     81          1           0        5.526634   -3.071574    2.441823
     82          1           0       -0.299512   -1.584800   -2.704316
     83          1           0        0.483694   -0.104483   -3.177069
     84          1           0       -2.373894   -1.517881   -1.471658
     85          1           0        0.060012    2.042732   -1.734183
     86          1           0       -1.746186    3.381156   -0.734404
     87          1           0       -5.030985   -1.430286   -1.920308
     88          1           0       -6.277471    2.470250   -1.943301
     89          1           0       -4.985831    1.457090   -2.534772
     90          1           0       -6.554857   -0.051144   -3.156942
     91          1           0       -7.823088    0.862149   -2.357779
     92          1           0       -6.091307   -3.947679   -1.299918
     93          1           0       -6.237815   -4.212552    0.450242
     94          1           0       -8.436766   -3.731041   -0.711818
     95          1           0       -8.090136   -2.588811    0.569182
     96          1           0       -7.598893   -2.188643   -2.433064
     97          1           0       -8.883897   -1.436957   -1.498285
     98          1           0       -3.239715   -1.028583    1.272167
     99          1           0       -4.434075   -0.028221    2.021434
    100          1           0       -6.132954   -1.799894    1.696499
    101          1           0       -4.650345   -2.767789    1.880275
    102          1           0       -7.574830   -0.538678    1.029392
    103          1           0       -8.464279    0.476945   -0.043906
    104          1           0       -7.170882    2.245309    0.226918
    105          1           0       -5.046233    2.374567    4.098832
    106          1           0       -6.765927    2.873221    4.300944
    107          1           0       -5.526750    4.066442    3.861119
    108          1           0       -5.461296    4.033138    0.029887
    109          1           0       -3.738769    4.320284    0.239029
    110          1           0       -4.388395    3.935250   -1.373609
 ---------------------------------------------------------------------

 SCF Done:  E(RHF) =  -2300.22704301     A.U. after   15 cycles

      1  C    Isotropic =   124.2097   Anisotropy =   144.1989

      2  C    Isotropic =   120.0343   Anisotropy =   157.3301

      3  C    Isotropic =   118.5335   Anisotropy =   157.8518

      4  C    Isotropic =   133.7210   Anisotropy =   142.5981

      5  C    Isotropic =   109.0635   Anisotropy =   126.2381

      6  C    Isotropic =   117.6735   Anisotropy =   139.3150

      7  N    Isotropic =   274.5815   Anisotropy =    83.1372

      8  C    Isotropic =   195.7494   Anisotropy =    12.9402

      9  C    Isotropic =   181.1079   Anisotropy =    44.7669

     10  C    Isotropic =   190.1717   Anisotropy =    29.4710

     11  C    Isotropic =   213.7671   Anisotropy =    19.3569

     12  C    Isotropic =   212.8105   Anisotropy =    21.0244

     13  C    Isotropic =   213.6277   Anisotropy =     8.6984

     14  N    Isotropic =   302.8095   Anisotropy =    54.4109

     15  C    Isotropic =   205.2352   Anisotropy =    34.9970

     16  C    Isotropic =   224.1536   Anisotropy =     8.7485

     17  C    Isotropic =   215.2327   Anisotropy =    20.2504

     18  C    Isotropic =   210.5277   Anisotropy =    36.7913

     19  C    Isotropic =   199.7042   Anisotropy =    41.8818

     20  C    Isotropic =   212.2304   Anisotropy =    21.1131

     21  C    Isotropic =   209.0327   Anisotropy =     9.8992

     22  C    Isotropic =    96.3117   Anisotropy =    99.1107

     23  O    Isotropic =  -134.2156   Anisotropy =   887.3739

     24  O    Isotropic =   284.1248   Anisotropy =   139.0424

     25  C    Isotropic =   197.3983   Anisotropy =    57.1698

     26  C    Isotropic =   209.9095   Anisotropy =    41.0402

     27  C    Isotropic =   206.4568   Anisotropy =    18.4694

     28  C    Isotropic =   119.5614   Anisotropy =   158.0517

     29  C    Isotropic =   121.1866   Anisotropy =   150.9570

     30  C    Isotropic =   118.8010   Anisotropy =   157.0407

     31  C    Isotropic =   134.4813   Anisotropy =   141.2940

     32  C    Isotropic =   109.4516   Anisotropy =   125.6760

     33  C    Isotropic =   119.4587   Anisotropy =   135.4487

     34  N    Isotropic =   275.6821   Anisotropy =    82.7585

     35  C    Isotropic =   195.3394   Anisotropy =    13.3163

     36  C    Isotropic =   181.3939   Anisotropy =    44.4637

     37  C    Isotropic =   180.0857   Anisotropy =    46.0934

     38  C    Isotropic =   213.7778   Anisotropy =    19.4590

     39  C    Isotropic =   212.4710   Anisotropy =    21.6478

     40  C    Isotropic =   211.9996   Anisotropy =    10.0428

     41  N    Isotropic =   234.5874   Anisotropy =    25.4906

     42  C    Isotropic =   194.8931   Anisotropy =    49.7794

     43  C    Isotropic =   222.9418   Anisotropy =    10.6414

     44  C    Isotropic =   215.6946   Anisotropy =    19.4300

     45  C    Isotropic =   210.9548   Anisotropy =    37.5354

     46  C    Isotropic =   191.7602   Anisotropy =    51.7625

     47  C    Isotropic =   212.5310   Anisotropy =    21.7010

     48  C    Isotropic =   209.4634   Anisotropy =     9.6195

     49  C    Isotropic =    96.0532   Anisotropy =    99.3219

     50  O    Isotropic =  -133.7304   Anisotropy =   887.3316

     51  O    Isotropic =   283.4158   Anisotropy =   138.4796

     52  C    Isotropic =   197.2025   Anisotropy =    57.4978

     53  C    Isotropic =   209.9270   Anisotropy =    41.2327

     54  O    Isotropic =     0.2899   Anisotropy =   522.8105

     55  H    Isotropic =    25.5008   Anisotropy =    14.9745

     56  H    Isotropic =    25.6252   Anisotropy =     8.7124

     57  H    Isotropic =    26.6321   Anisotropy =     9.7741

     58  H    Isotropic =    31.4162   Anisotropy =     9.0810

     59  H    Isotropic =    32.1714   Anisotropy =    13.2456

     60  H    Isotropic =    32.8654   Anisotropy =     9.2168

     61  H    Isotropic =    32.3475   Anisotropy =    15.0829

     62  H    Isotropic =    32.5415   Anisotropy =    13.5144

     63  H    Isotropic =    31.7254   Anisotropy =    14.6107

     64  H    Isotropic =    31.7415   Anisotropy =    15.2714

     65  H    Isotropic =    32.6126   Anisotropy =    18.0450

     66  H    Isotropic =    32.4951   Anisotropy =    10.7304

     67  H    Isotropic =    32.5983   Anisotropy =    13.3009

     68  H    Isotropic =    32.4592   Anisotropy =    14.7124

     69  H    Isotropic =    32.9654   Anisotropy =    10.1316

     70  H    Isotropic =    32.3447   Anisotropy =    13.5935

     71  H    Isotropic =    31.7830   Anisotropy =    15.5924

     72  H    Isotropic =    31.9071   Anisotropy =     9.0658

     73  H    Isotropic =    32.2098   Anisotropy =    14.7889

     74  H    Isotropic =    31.3413   Anisotropy =     9.6175

     75  H    Isotropic =    31.2031   Anisotropy =    12.2138

     76  H    Isotropic =    30.5753   Anisotropy =    11.6631

     77  H    Isotropic =    30.5917   Anisotropy =    11.7898

     78  H    Isotropic =    30.6870   Anisotropy =     7.6597

     79  H    Isotropic =    31.8954   Anisotropy =    11.4530

     80  H    Isotropic =    30.7633   Anisotropy =    13.8826

     81  H    Isotropic =    30.9368   Anisotropy =    10.6505

     82  H    Isotropic =    29.8403   Anisotropy =     9.9313

     83  H    Isotropic =    29.9569   Anisotropy =    10.1179

     84  H    Isotropic =    24.5304   Anisotropy =    15.3067

     85  H    Isotropic =    25.7814   Anisotropy =     8.3156

     86  H    Isotropic =    26.6918   Anisotropy =     9.4538

     87  H    Isotropic =    30.6179   Anisotropy =     7.3195

     88  H    Isotropic =    32.1176   Anisotropy =    13.4201

     89  H    Isotropic =    32.7595   Anisotropy =     9.2272

     90  H    Isotropic =    32.4021   Anisotropy =    13.5012

     91  H    Isotropic =    32.2417   Anisotropy =    15.1757

     92  H    Isotropic =    30.6663   Anisotropy =    13.1368

     93  H    Isotropic =    30.7846   Anisotropy =    13.7624

     94  H    Isotropic =    32.2726   Anisotropy =    18.2991

     95  H    Isotropic =    32.5054   Anisotropy =    10.1248

     96  H    Isotropic =    32.4346   Anisotropy =    13.3505

     97  H    Isotropic =    32.3869   Anisotropy =    14.7493

     98  H    Isotropic =    31.6726   Anisotropy =    13.4258

     99  H    Isotropic =    32.8844   Anisotropy =    10.2720

    100  H    Isotropic =    31.4395   Anisotropy =     7.9046

    101  H    Isotropic =    30.9011   Anisotropy =    14.5726

    102  H    Isotropic =    31.5650   Anisotropy =     9.5423

    103  H    Isotropic =    32.1645   Anisotropy =    14.7387

    104  H    Isotropic =    31.1430   Anisotropy =    12.3638

    105  H    Isotropic =    30.6604   Anisotropy =     7.6439

    106  H    Isotropic =    30.5683   Anisotropy =    11.7237

    107  H    Isotropic =    30.5262   Anisotropy =    11.7492

    108  H    Isotropic =    30.9479   Anisotropy =    10.6759

    109  H    Isotropic =    30.7216   Anisotropy =    13.9282

    110  H    Isotropic =    31.8855   Anisotropy =    11.5976

 The electronic state is 1-A.
 Alpha  occ. eigenvalues --  -20.31160 -20.30163 -20.25024 -20.24090 -19.91573
 Alpha  occ. eigenvalues --  -15.47656 -15.33557 -15.32768 -15.29985 -11.17067
 Alpha  occ. eigenvalues --  -11.16026 -11.10863 -11.10131 -11.09970 -11.09196
 Alpha  occ. eigenvalues --  -11.08970 -11.08772 -11.08598 -11.07993 -11.07257
 Alpha  occ. eigenvalues --  -11.07153 -11.07032 -11.06713 -11.06491 -11.06385
 Alpha  occ. eigenvalues --  -11.06081 -11.05874 -11.05689 -11.05544 -11.05474
 Alpha  occ. eigenvalues --  -11.05127 -11.05004 -11.04918 -11.04831 -11.04803
 Alpha  occ. eigenvalues --  -11.04620 -11.04442 -11.03893 -11.03745 -11.03500
 Alpha  occ. eigenvalues --  -11.03435 -11.03313 -11.03293 -11.03032 -11.01117
 Alpha  occ. eigenvalues --  -11.01085 -11.01025 -11.00909 -11.00824 -11.00710
 Alpha  occ. eigenvalues --  -11.00698 -11.00618 -11.00524 -11.00359  -1.38332
 Alpha  occ. eigenvalues --   -1.37372  -1.28212  -1.28025  -1.27164  -1.21052
 Alpha  occ. eigenvalues --   -1.20716  -1.18225  -1.11803  -1.09043  -1.08037
 Alpha  occ. eigenvalues --   -1.06785  -1.06116  -1.04333  -1.03158  -1.00562
 Alpha  occ. eigenvalues --   -1.00032  -0.98609  -0.98152  -0.97401  -0.96431
 Alpha  occ. eigenvalues --   -0.96198  -0.94513  -0.93855  -0.93409  -0.92132
 Alpha  occ. eigenvalues --   -0.91535  -0.91160  -0.90866  -0.89175  -0.87736
 Alpha  occ. eigenvalues --   -0.86138  -0.84437  -0.82834  -0.82379  -0.81394
 Alpha  occ. eigenvalues --   -0.80569  -0.78947  -0.78694  -0.77929  -0.77025
 Alpha  occ. eigenvalues --   -0.76589  -0.74294  -0.73327  -0.72178  -0.71792
 Alpha  occ. eigenvalues --   -0.70883  -0.70255  -0.69134  -0.68917  -0.66808
 Alpha  occ. eigenvalues --   -0.65715  -0.65380  -0.64337  -0.63868  -0.62927
 Alpha  occ. eigenvalues --   -0.62474  -0.61763  -0.61618  -0.61472  -0.60710
 Alpha  occ. eigenvalues --   -0.60612  -0.60011  -0.59621  -0.59096  -0.58831
 Alpha  occ. eigenvalues --   -0.58222  -0.58027  -0.57566  -0.57542  -0.57370
 Alpha  occ. eigenvalues --   -0.56843  -0.56327  -0.56097  -0.55868  -0.55626
 Alpha  occ. eigenvalues --   -0.55042  -0.54911  -0.54278  -0.54068  -0.53978
 Alpha  occ. eigenvalues --   -0.53525  -0.53276  -0.52713  -0.52428  -0.51974
 Alpha  occ. eigenvalues --   -0.51853  -0.51226  -0.50919  -0.50439  -0.50287
 Alpha  occ. eigenvalues --   -0.49771  -0.49654  -0.49215  -0.48794  -0.48539
 Alpha  occ. eigenvalues --   -0.48123  -0.47850  -0.47691  -0.47390  -0.47029
 Alpha  occ. eigenvalues --   -0.46874  -0.46234  -0.45709  -0.45593  -0.45255
 Alpha  occ. eigenvalues --   -0.45154  -0.44739  -0.44413  -0.44180  -0.43960
 Alpha  occ. eigenvalues --   -0.43905  -0.43483  -0.42979  -0.42692  -0.42209
 Alpha  occ. eigenvalues --   -0.42001  -0.41872  -0.41233  -0.41076  -0.40864
 Alpha  occ. eigenvalues --   -0.40677  -0.39763  -0.39430  -0.38684  -0.37906
 Alpha  occ. eigenvalues --   -0.37403  -0.36770  -0.35798  -0.35325  -0.34437
 Alpha  occ. eigenvalues --   -0.33720  -0.33528  -0.32851  -0.32108  -0.31309
 Alpha  occ. eigenvalues --   -0.26346  -0.26145  -0.25428  -0.20828  -0.19644
 Alpha  occ. eigenvalues --   -0.15458  -0.15281
 Alpha virt. eigenvalues --    0.27612   0.27954   0.28293   0.29898   0.30224
 Alpha virt. eigenvalues --    0.30956   0.46842   0.47510   0.48916   0.49208
 Alpha virt. eigenvalues --    0.50089   0.50510   0.50858   0.51095   0.52942

 Mulliken charges:
               1
     1  C   -0.074231
     2  C    0.000784
     3  C   -0.061372
     4  C   -0.089838
     5  C    0.088215
     6  C   -0.014337
     7  N   -0.286994
     8  C    0.018330
     9  C    0.128284
    10  C    0.040693
    11  C   -0.114950
    12  C   -0.105524
    13  C    0.027890
    14  N   -0.291276
    15  C   -0.014623
    16  C   -0.108201
    17  C   -0.101938
    18  C   -0.105280
    19  C   -0.019507
    20  C   -0.110475
    21  C   -0.066328
    22  C    0.319762
    23  O   -0.277621
    24  O   -0.255164
    25  C   -0.055638
    26  C   -0.078761
    27  C   -0.109818
    28  C    0.000035
    29  C   -0.072438
    30  C   -0.060687
    31  C   -0.091554
    32  C    0.088025
    33  C   -0.015660
    34  N   -0.287981
    35  C    0.021217
    36  C    0.128884
    37  C    0.040768
    38  C   -0.115665
    39  C   -0.104800
    40  C    0.028100
    41  N   -0.085571
    42  C   -0.007747
    43  C   -0.110780
    44  C   -0.102159
    45  C   -0.106719
    46  C   -0.012310
    47  C   -0.111601
    48  C   -0.067036
    49  C    0.320490
    50  O   -0.278956
    51  O   -0.253989
    52  C   -0.055667
    53  C   -0.078686
    54  O   -0.454043
    55  H    0.063220
    56  H    0.064103
    57  H    0.058624
    58  H    0.056395
    59  H    0.050159
    60  H    0.055285
    61  H    0.047489
    62  H    0.050212
    63  H    0.053409
    64  H    0.060961
    65  H    0.053006
    66  H    0.050350
    67  H    0.049879
    68  H    0.050806
    69  H    0.062796
    70  H    0.063786
    71  H    0.056303
    72  H    0.050737
    73  H    0.050519
    74  H    0.067606
    75  H    0.064370
    76  H    0.076993
    77  H    0.071657
    78  H    0.074780
    79  H    0.055339
    80  H    0.071822
    81  H    0.074976
    82  H    0.060954
    83  H    0.055875
    84  H    0.090193
    85  H    0.057607
    86  H    0.057086
    87  H    0.086217
    88  H    0.052505
    89  H    0.058474
    90  H    0.053959
    91  H    0.051137
    92  H    0.088818
    93  H    0.080441
    94  H    0.065414
    95  H    0.057168
    96  H    0.056672
    97  H    0.057040
    98  H    0.082937
    99  H    0.071016
   100  H    0.067438
   101  H    0.088776
   102  H    0.065993
   103  H    0.054669
   104  H    0.066805
   105  H    0.075900
   106  H    0.072779
   107  H    0.078870
   108  H    0.074792
   109  H    0.073420
   110  H    0.055910
 Sum of Mulliken charges =  -0.00000

 Dipole moment (field-independent basis, Debye):
    X=             -2.9488    Y=              1.4769    Z=              0.3394  Tot=              3.3154
 Quadrupole moment (field-independent basis, Debye-Ang):
   XX=           -245.4853   YY=           -301.8918   ZZ=           -292.6851
   XY=            -16.2474   XZ=              3.0799   YZ=             -2.0235

 Summary of Natural Population Analysis:

                                       Natural Population
                Natural  -----------------------------------------------
    Atom  No    Charge         Core      Valence    Rydberg      Total
 -----------------------------------------------------------------------
      C    1   -0.05569      1.99993     4.05576    0.00000     6.05569
      C    2    0.01442      1.99990     3.98567    0.00000     5.98558
      C    3   -0.03226      1.99994     4.03231    0.00000     6.03226
      C    4   -0.08700      1.99993     4.08707    0.00000     6.08700
      C    5    0.11135      1.99985     3.88879    0.00000     5.88865
      C    6   -0.02585      1.99990     4.02595    0.00000     6.02585
      N    7   -0.27556      1.99998     5.27558    0.00000     7.27556
      C    8    0.02029      1.99996     3.97975    0.00000     5.97971
      C    9    0.17143      1.99996     3.82861    0.00000     5.82857
      C   10    0.07428      1.99993     3.92579    0.00000     5.92572
      C   11   -0.08522      1.99994     4.08528    0.00000     6.08522
      C   12   -0.07368      1.99996     4.07372    0.00000     6.07368
      C   13    0.05017      1.99998     3.94985    0.00000     5.94983
      N   14   -0.27965      1.99999     5.27966    0.00000     7.27965
      C   15    0.03890      1.99994     3.96116    0.00000     5.96110
      C   16   -0.07452      1.99997     4.07456    0.00000     6.07452
      C   17   -0.06813      1.99996     4.06817    0.00000     6.06813
      C   18   -0.07542      1.99995     4.07547    0.00000     6.07542
      C   19    0.03385      1.99994     3.96621    0.00000     5.96615
      C   20   -0.07374      1.99992     4.07382    0.00000     6.07374
      C   21   -0.08417      1.99994     4.08422    0.00000     6.08417
      C   22    0.40323      1.99991     3.59686    0.00000     5.59677
      O   23   -0.31187      1.99999     6.31189    0.00000     8.31187
      O   24   -0.26677      1.99999     6.26678    0.00000     8.26677
      C   25    0.03476      1.99984     3.96540    0.00000     5.96524
      C   26   -0.01605      1.99992     4.01612    0.00000     6.01605
      C   27   -0.08717      1.99996     4.08722    0.00000     6.08717
      C   28    0.01298      1.99990     3.98711    0.00000     5.98702
      C   29   -0.05160      1.99993     4.05168    0.00000     6.05160
      C   30   -0.03079      1.99994     4.03085    0.00000     6.03079
      C   31   -0.08981      1.99993     4.08988    0.00000     6.08981
      C   32    0.11160      1.99986     3.88854    0.00000     5.88840
      C   33   -0.03019      1.99990     4.03029    0.00000     6.03019
      N   34   -0.27663      1.99998     5.27665    0.00000     7.27663
      C   35    0.02247      1.99996     3.97757    0.00000     5.97753
      C   36    0.17151      1.99996     3.82853    0.00000     5.82849
      C   37    0.07299      1.99991     3.92710    0.00000     5.92701
      C   38   -0.08621      1.99994     4.08627    0.00000     6.08621
      C   39   -0.07263      1.99996     4.07267    0.00000     6.07263
      C   40    0.04997      1.99998     3.95005    0.00000     5.95003
      N   41    0.02626      1.99999     4.97375    0.00000     6.97374
      C   42    0.04350      1.99991     3.95659    0.00000     5.95650
      C   43   -0.08108      1.99997     4.08112    0.00000     6.08108
      C   44   -0.06976      1.99996     4.06980    0.00000     6.06976
      C   45   -0.08101      1.99994     4.08107    0.00000     6.08101
      C   46    0.03819      1.99992     3.96189    0.00000     5.96181
      C   47   -0.07537      1.99992     4.07545    0.00000     6.07537
      C   48   -0.08580      1.99995     4.08585    0.00000     6.08580
      C   49    0.40392      1.99991     3.59617    0.00000     5.59608
      O   50   -0.31338      1.99999     6.31339    0.00000     8.31338
      O   51   -0.26535      1.99999     6.26536    0.00000     8.26535
      C   52    0.03486      1.99984     3.96530    0.00000     5.96514
      C   53   -0.01573      1.99992     4.01581    0.00000     6.01573
      O   54   -0.50494      2.00000     6.50494    0.00000     8.50494
      H   55    0.03735      0.00000     0.96265    0.00000     0.96265
      H   56    0.03609      0.00000     0.96391    0.00000     0.96391
      H   57    0.03452      0.00000     0.96548    0.00000     0.96548
      H   58    0.02514      0.00000     0.97486    0.00000     0.97486
      H   59    0.02809      0.00000     0.97191    0.00000     0.97191
      H   60    0.03231      0.00000     0.96769    0.00000     0.96769
      H   61    0.02661      0.00000     0.97339    0.00000     0.97339
      H   62    0.02920      0.00000     0.97080    0.00000     0.97080
      H   63    0.02641      0.00000     0.97359    0.00000     0.97359
      H   64    0.03519      0.00000     0.96481    0.00000     0.96481
      H   65    0.03321      0.00000     0.96679    0.00000     0.96679
      H   66    0.02978      0.00000     0.97022    0.00000     0.97022
      H   67    0.02911      0.00000     0.97089    0.00000     0.97089
      H   68    0.02998      0.00000     0.97002    0.00000     0.97002
      H   69    0.04027      0.00000     0.95973    0.00000     0.95973
      H   70    0.04245      0.00000     0.95755    0.00000     0.95755
      H   71    0.03017      0.00000     0.96983    0.00000     0.96983
      H   72    0.02178      0.00000     0.97822    0.00000     0.97822
      H   73    0.02846      0.00000     0.97154    0.00000     0.97154
      H   74    0.04238      0.00000     0.95762    0.00000     0.95762
      H   75    0.04160      0.00000     0.95840    0.00000     0.95840
      H   76    0.04596      0.00000     0.95404    0.00000     0.95404
      H   77    0.04016      0.00000     0.95984    0.00000     0.95984
      H   78    0.04329      0.00000     0.95671    0.00000     0.95671
      H   79    0.02994      0.00000     0.97006    0.00000     0.97006
      H   80    0.04746      0.00000     0.95254    0.00000     0.95254
      H   81    0.05069      0.00000     0.94931    0.00000     0.94931
      H   82    0.04210      0.00000     0.95790    0.00000     0.95790
      H   83    0.03737      0.00000     0.96263    0.00000     0.96263
      H   84    0.06115      0.00000     0.93885    0.00000     0.93885
      H   85    0.03015      0.00000     0.96985    0.00000     0.96985
      H   86    0.03331      0.00000     0.96669    0.00000     0.96669
      H   87    0.05026      0.00000     0.94974    0.00000     0.94974
      H   88    0.03021      0.00000     0.96979    0.00000     0.96979
      H   89    0.03515      0.00000     0.96485    0.00000     0.96485
      H   90    0.03233      0.00000     0.96767    0.00000     0.96767
      H   91    0.02981      0.00000     0.97019    0.00000     0.97019
      H   92    0.05711      0.00000     0.94289    0.00000     0.94289
      H   93    0.04987      0.00000     0.95013    0.00000     0.95013
      H   94    0.04570      0.00000     0.95430    0.00000     0.95430
      H   95    0.03653      0.00000     0.96347    0.00000     0.96347
      H   96    0.03555      0.00000     0.96445    0.00000     0.96445
      H   97    0.03613      0.00000     0.96387    0.00000     0.96387
      H   98    0.05976      0.00000     0.94024    0.00000     0.94024
      H   99    0.04800      0.00000     0.95200    0.00000     0.95200
      H  100    0.03563      0.00000     0.96437    0.00000     0.96437
      H  101    0.05800      0.00000     0.94200    0.00000     0.94200
      H  102    0.04087      0.00000     0.95913    0.00000     0.95913
      H  103    0.03258      0.00000     0.96742    0.00000     0.96742
      H  104    0.04407      0.00000     0.95593    0.00000     0.95593
      H  105    0.04427      0.00000     0.95573    0.00000     0.95573
      H  106    0.04115      0.00000     0.95885    0.00000     0.95885
      H  107    0.04761      0.00000     0.95239    0.00000     0.95239
      H  108    0.05044      0.00000     0.94956    0.00000     0.94956
      H  109    0.04893      0.00000     0.95107    0.00000     0.95107
      H  110    0.03043      0.00000     0.96957    0.00000     0.96957
 =======================================================================
   * Total *   -0.00000    107.99671   286.00329    0.00000   394.00000

 Normal termination of Gaussian 16 at Thu May 30 09:19:43 2024.
