 Gaussian 16, Revision B.01,
 Gaussian 16:  ES64L-G16RevB.01 20-Dec-2017

 ----------------------------------------------
 # nmr=giao hf/sto-3g pop=nbo geom=connectivity
 ----------------------------------------------

 -----------------
 Pleiokomenine_C_2
 -----------------
 Symbolic Z-matrix:
 Charge =  0 Multiplicity = 1

                         Standard orientation:
 ---------------------------------------------------------------------
 Center     Atomic      Atomic             Coordinates (Angstroms)
 Number     Number       Type             X           Y           Z
 ---------------------------------------------------------------------
      1          6           0        1.915623    2.335523    0.455159
      2          6           0        1.147558    3.236241   -0.296845
      3          6           0        1.290492    3.274012   -1.700772
      4          6           0        2.188196    2.428244   -2.363486
      5          6           0        2.940555    1.538535   -1.618062
      6          6           0        2.781569    1.488368   -0.217621
      7          7           0        3.908705    0.602791   -2.082296
      8          6           0        3.591393    0.324983    0.300576
      9          6           0        4.671558    0.305730   -0.841572
     10          6           0        4.300789    0.373909    1.653742
     11          6           0        5.712051    1.490208   -0.592053
     12          6           0        6.398629    1.363919    0.769619
     13          6           0        5.825874    0.155941    1.520868
     14          7           0        3.781318   -0.791240    2.368858
     15          6           0        4.140342   -0.797262    3.768460
     16          6           0        5.669180   -0.949275    3.844275
     17          6           0        6.426672    0.043242    2.942232
     18          6           0        2.564068   -0.829205    0.464955
     19          6           0        2.403547   -0.961231    1.981327
     20          6           0        6.124024   -1.110552    0.641909
     21          6           0        5.550562   -0.962303   -0.805076
     22          6           0        4.928479   -2.249716   -1.320837
     23          8           0        4.703362   -3.248391   -0.649154
     24          8           0        4.733805   -2.184015   -2.668559
     25          6           0        4.146053   -3.354906   -3.234418
     26          6           0        4.592935    0.934011   -3.323388
     27          6           0        0.092038    4.085626    0.382384
     28          6           0       -1.316642    3.522040    0.320153
     29          6           0       -1.558920    2.140503    0.288024
     30          6           0       -2.416879    4.408343    0.372224
     31          6           0       -3.740420    3.943515    0.348596
     32          6           0       -3.965730    2.583047    0.270477
     33          6           0       -2.869436    1.694201    0.260789
     34          7           0       -5.201691    1.891272    0.159710
     35          6           0       -3.417122    0.285363    0.307041
     36          6           0       -4.768043    0.600687   -0.426617
     37          6           0       -2.763965   -0.874946   -0.423716
     38          6           0       -4.479314    0.862203   -1.994177
     39          6           0       -3.667175   -0.272389   -2.624332
     40          6           0       -3.558522   -1.427064   -1.615836
     41          7           0       -2.545046   -1.955616    0.623458
     42          6           0       -1.554626   -2.928683    0.074430
     43          6           0       -2.173376   -3.597685   -1.169640
     44          6           0       -2.754050   -2.610118   -2.208743
     45          6           0       -3.287419   -0.105243    1.808070
     46          6           0       -2.161888   -1.155893    1.812864
     47          6           0       -5.040083   -1.772634   -1.237693
     48          6           0       -5.743791   -0.597631   -0.460084
     49          6           0       -6.375323   -1.006784    0.862288
     50          8           0       -6.521618   -0.280317    1.836523
     51          8           0       -6.917821   -2.256723    0.766091
     52          6           0       -7.477346   -2.741424    1.985225
     53          6           0       -6.358581    2.608592   -0.337811
     54          8           0       -3.665244   -2.661018    0.989257
     55          1           0        1.789400    2.261316    1.530953
     56          1           0        0.677330    3.954852   -2.288588
     57          1           0        2.269305    2.471260   -3.443430
     58          1           0        4.070891    1.306951    2.186119
     59          1           0        5.241016    2.478795   -0.657297
     60          1           0        6.478538    1.490959   -1.378487
     61          1           0        7.482056    1.257630    0.633415
     62          1           0        6.247982    2.288138    1.341587
     63          1           0        3.814374    0.118800    4.275119
     64          1           0        3.678065   -1.645271    4.286018
     65          1           0        5.999615   -0.826010    4.882079
     66          1           0        5.942336   -1.971044    3.550458
     67          1           0        6.390999    1.028483    3.426034
     68          1           0        7.484819   -0.239687    2.891431
     69          1           0        1.590085   -0.650700   -0.006529
     70          1           0        2.931456   -1.772727    0.065858
     71          1           0        1.752758   -0.180451    2.390658
     72          1           0        2.004632   -1.943083    2.252787
     73          1           0        5.747182   -2.013977    1.132274
     74          1           0        7.211132   -1.252434    0.571021
     75          1           0        6.420546   -0.814211   -1.463300
     76          1           0        3.173035   -3.557763   -2.775820
     77          1           0        4.816514   -4.212238   -3.119979
     78          1           0        3.993346   -3.174664   -4.302069
     79          1           0        4.999266    1.951651   -3.311341
     80          1           0        3.908290    0.840191   -4.173202
     81          1           0        5.423352    0.244934   -3.504794
     82          1           0        0.358160    4.233825    1.436854
     83          1           0        0.111452    5.080856   -0.081091
     84          1           0       -0.743747    1.426025    0.295968
     85          1           0       -2.245601    5.481750    0.431920
     86          1           0       -4.561801    4.649846    0.382924
     87          1           0       -1.754846   -0.578307   -0.746994
     88          1           0       -3.959978    1.808966   -2.186545
     89          1           0       -5.434966    0.962201   -2.527319
     90          1           0       -4.142695   -0.600639   -3.556761
     91          1           0       -2.671348    0.098202   -2.899913
     92          1           0       -1.350084   -3.658077    0.865159
     93          1           0       -0.638401   -2.377742   -0.162120
     94          1           0       -2.978547   -4.272316   -0.852834
     95          1           0       -1.419078   -4.230041   -1.652005
     96          1           0       -1.902785   -2.207320   -2.774576
     97          1           0       -3.366433   -3.160678   -2.932912
     98          1           0       -3.035772    0.717008    2.487979
     99          1           0       -4.198861   -0.558227    2.196600
    100          1           0       -1.168809   -0.732270    1.632328
    101          1           0       -2.162813   -1.801308    2.695844
    102          1           0       -5.112702   -2.732217   -0.722311
    103          1           0       -5.602565   -1.939678   -2.168322
    104          1           0       -6.620922   -0.306674   -1.058230
    105          1           0       -8.362163   -2.157090    2.255999
    106          1           0       -7.782926   -3.779574    1.828553
    107          1           0       -6.735211   -2.718771    2.789734
    108          1           0       -7.219642    1.937540   -0.415784
    109          1           0       -6.642763    3.409432    0.353121
    110          1           0       -6.176552    3.046588   -1.325049
 ---------------------------------------------------------------------

 SCF Done:  E(RHF) =  -2300.19688185     A.U. after   16 cycles

      1  C    Isotropic =   125.4817   Anisotropy =   148.4673

      2  C    Isotropic =   118.9703   Anisotropy =   163.7841

      3  C    Isotropic =   118.9921   Anisotropy =   157.8198

      4  C    Isotropic =   133.1602   Anisotropy =   145.8582

      5  C    Isotropic =   108.0857   Anisotropy =   130.5222

      6  C    Isotropic =   117.2796   Anisotropy =   144.4886

      7  N    Isotropic =   272.5107   Anisotropy =    82.6904

      8  C    Isotropic =   198.0988   Anisotropy =    11.6471

      9  C    Isotropic =   180.2370   Anisotropy =    43.5742

     10  C    Isotropic =   189.6052   Anisotropy =    32.3150

     11  C    Isotropic =   212.7972   Anisotropy =    21.4491

     12  C    Isotropic =   214.4913   Anisotropy =    19.1986

     13  C    Isotropic =   210.8652   Anisotropy =     8.3495

     14  N    Isotropic =   301.2085   Anisotropy =    59.5481

     15  C    Isotropic =   202.4690   Anisotropy =    40.0859

     16  C    Isotropic =   219.5137   Anisotropy =    10.2916

     17  C    Isotropic =   214.0620   Anisotropy =    23.0619

     18  C    Isotropic =   209.1861   Anisotropy =    32.0536

     19  C    Isotropic =   200.3412   Anisotropy =    43.8388

     20  C    Isotropic =   212.2464   Anisotropy =    20.3503

     21  C    Isotropic =   208.2753   Anisotropy =    10.6943

     22  C    Isotropic =    96.8631   Anisotropy =    98.5777

     23  O    Isotropic =  -136.8512   Anisotropy =   890.6601

     24  O    Isotropic =   284.0179   Anisotropy =   139.1317

     25  C    Isotropic =   197.3873   Anisotropy =    56.7188

     26  C    Isotropic =   209.7503   Anisotropy =    41.9844

     27  C    Isotropic =   206.8761   Anisotropy =    21.9761

     28  C    Isotropic =   119.9570   Anisotropy =   156.0922

     29  C    Isotropic =   128.7032   Anisotropy =   148.4263

     30  C    Isotropic =   118.7692   Anisotropy =   152.3105

     31  C    Isotropic =   133.8612   Anisotropy =   142.7935

     32  C    Isotropic =   108.6247   Anisotropy =   129.5908

     33  C    Isotropic =   117.9936   Anisotropy =   139.8862

     34  N    Isotropic =   273.0062   Anisotropy =    84.8042

     35  C    Isotropic =   201.1169   Anisotropy =    16.6996

     36  C    Isotropic =   179.4013   Anisotropy =    40.2147

     37  C    Isotropic =   183.8645   Anisotropy =    41.7096

     38  C    Isotropic =   211.1633   Anisotropy =    22.9775

     39  C    Isotropic =   213.0303   Anisotropy =    19.4167

     40  C    Isotropic =   211.7403   Anisotropy =    10.5646

     41  N    Isotropic =   235.5646   Anisotropy =    26.1112

     42  C    Isotropic =   194.0004   Anisotropy =    49.1938

     43  C    Isotropic =   219.4376   Anisotropy =    10.0341

     44  C    Isotropic =   214.9912   Anisotropy =    21.8124

     45  C    Isotropic =   207.3116   Anisotropy =    34.0052

     46  C    Isotropic =   191.1201   Anisotropy =    50.5936

     47  C    Isotropic =   211.7997   Anisotropy =    26.0563

     48  C    Isotropic =   207.3102   Anisotropy =    17.1054

     49  C    Isotropic =    98.3450   Anisotropy =    96.8733

     50  O    Isotropic =  -132.5634   Anisotropy =   879.0690

     51  O    Isotropic =   285.9231   Anisotropy =   142.4961

     52  C    Isotropic =   197.5137   Anisotropy =    56.9456

     53  C    Isotropic =   211.1039   Anisotropy =    42.2330

     54  O    Isotropic =    74.7300   Anisotropy =   407.8404

     55  H    Isotropic =    26.1166   Anisotropy =    12.3091

     56  H    Isotropic =    26.0590   Anisotropy =     6.6675

     57  H    Isotropic =    26.5512   Anisotropy =     7.4029

     58  H    Isotropic =    32.1277   Anisotropy =     7.5803

     59  H    Isotropic =    32.9560   Anisotropy =     8.7452

     60  H    Isotropic =    32.0787   Anisotropy =    13.5562

     61  H    Isotropic =    32.2499   Anisotropy =    15.8423

     62  H    Isotropic =    32.6611   Anisotropy =    13.2474

     63  H    Isotropic =    32.5104   Anisotropy =    11.5323

     64  H    Isotropic =    31.7429   Anisotropy =    14.1991

     65  H    Isotropic =    32.4156   Anisotropy =    17.6782

     66  H    Isotropic =    31.8560   Anisotropy =    12.5667

     67  H    Isotropic =    32.5807   Anisotropy =    12.8685

     68  H    Isotropic =    32.2546   Anisotropy =    15.3022

     69  H    Isotropic =    33.2510   Anisotropy =    15.4158

     70  H    Isotropic =    32.3746   Anisotropy =    10.4320

     71  H    Isotropic =    32.3557   Anisotropy =    12.5252

     72  H    Isotropic =    31.9865   Anisotropy =    14.3827

     73  H    Isotropic =    30.3545   Anisotropy =     9.6727

     74  H    Isotropic =    32.0025   Anisotropy =    15.5310

     75  H    Isotropic =    31.1489   Anisotropy =    12.6556

     76  H    Isotropic =    30.6104   Anisotropy =     8.3957

     77  H    Isotropic =    30.4909   Anisotropy =    11.9778

     78  H    Isotropic =    30.5108   Anisotropy =    11.3088

     79  H    Isotropic =    31.8550   Anisotropy =    12.0794

     80  H    Isotropic =    30.6921   Anisotropy =    13.7407

     81  H    Isotropic =    30.8038   Anisotropy =    10.8893

     82  H    Isotropic =    30.3178   Anisotropy =     9.2112

     83  H    Isotropic =    29.8698   Anisotropy =    12.3385

     84  H    Isotropic =    27.6221   Anisotropy =    17.7577

     85  H    Isotropic =    25.7060   Anisotropy =     6.9682

     86  H    Isotropic =    26.4835   Anisotropy =     7.4725

     87  H    Isotropic =    32.3742   Anisotropy =    11.0342

     88  H    Isotropic =    33.3342   Anisotropy =     8.2741

     89  H    Isotropic =    32.2231   Anisotropy =    13.5803

     90  H    Isotropic =    32.3649   Anisotropy =    15.2900

     91  H    Isotropic =    33.2406   Anisotropy =    12.1616

     92  H    Isotropic =    31.0458   Anisotropy =    12.7027

     93  H    Isotropic =    32.4264   Anisotropy =    15.2846

     94  H    Isotropic =    31.1734   Anisotropy =    13.6862

     95  H    Isotropic =    32.4408   Anisotropy =    16.3416

     96  H    Isotropic =    32.8929   Anisotropy =    11.9279

     97  H    Isotropic =    32.2228   Anisotropy =    15.1479

     98  H    Isotropic =    32.8444   Anisotropy =     9.9595

     99  H    Isotropic =    31.4097   Anisotropy =    12.5474

    100  H    Isotropic =    32.0864   Anisotropy =    15.3961

    101  H    Isotropic =    31.1458   Anisotropy =    13.4649

    102  H    Isotropic =    29.9446   Anisotropy =    11.1080

    103  H    Isotropic =    31.8601   Anisotropy =    14.6951

    104  H    Isotropic =    31.4625   Anisotropy =    13.1432

    105  H    Isotropic =    30.6241   Anisotropy =    11.7265

    106  H    Isotropic =    30.6657   Anisotropy =    12.5256

    107  H    Isotropic =    30.6065   Anisotropy =     7.1780

    108  H    Isotropic =    31.5325   Anisotropy =    12.0745

    109  H    Isotropic =    30.8107   Anisotropy =    15.0661

    110  H    Isotropic =    31.9932   Anisotropy =    11.7802

 The electronic state is 1-A.
 Alpha  occ. eigenvalues --  -20.30430 -20.28507 -20.24538 -20.22529 -19.92099
 Alpha  occ. eigenvalues --  -15.48149 -15.33821 -15.33401 -15.30511 -11.16340
 Alpha  occ. eigenvalues --  -11.14746 -11.10556 -11.09618 -11.09591 -11.09297
 Alpha  occ. eigenvalues --  -11.09186 -11.08727 -11.08661 -11.08067 -11.07980
 Alpha  occ. eigenvalues --  -11.07248 -11.07204 -11.07178 -11.06374 -11.06360
 Alpha  occ. eigenvalues --  -11.06194 -11.06038 -11.05987 -11.05822 -11.05637
 Alpha  occ. eigenvalues --  -11.05437 -11.05132 -11.04786 -11.04704 -11.04635
 Alpha  occ. eigenvalues --  -11.04355 -11.04087 -11.04082 -11.03987 -11.03966
 Alpha  occ. eigenvalues --  -11.03935 -11.03892 -11.03613 -11.03129 -11.02504
 Alpha  occ. eigenvalues --  -11.02381 -11.02366 -11.02182 -11.02099 -11.02099
 Alpha  occ. eigenvalues --  -11.01892 -11.01866 -11.01855 -11.01469  -1.37724
 Alpha  occ. eigenvalues --   -1.35756  -1.29535  -1.27443  -1.25505  -1.21903
 Alpha  occ. eigenvalues --   -1.20817  -1.19633  -1.10476  -1.09666  -1.08980
 Alpha  occ. eigenvalues --   -1.07772  -1.05810  -1.05093  -1.02759  -1.00826
 Alpha  occ. eigenvalues --   -0.99104  -0.98721  -0.98423  -0.97537  -0.96718
 Alpha  occ. eigenvalues --   -0.96497  -0.95169  -0.94705  -0.94347  -0.92588
 Alpha  occ. eigenvalues --   -0.91744  -0.91470  -0.89623  -0.89325  -0.87975
 Alpha  occ. eigenvalues --   -0.86599  -0.84875  -0.82896  -0.81599  -0.81153
 Alpha  occ. eigenvalues --   -0.80391  -0.79780  -0.78261  -0.77531  -0.77402
 Alpha  occ. eigenvalues --   -0.77237  -0.74447  -0.74438  -0.73249  -0.72757
 Alpha  occ. eigenvalues --   -0.71836  -0.70300  -0.69604  -0.68301  -0.65542
 Alpha  occ. eigenvalues --   -0.65058  -0.64845  -0.64658  -0.63608  -0.62882
 Alpha  occ. eigenvalues --   -0.62504  -0.62367  -0.61547  -0.61461  -0.61311
 Alpha  occ. eigenvalues --   -0.60396  -0.60108  -0.59090  -0.58660  -0.58447
 Alpha  occ. eigenvalues --   -0.58180  -0.58026  -0.57919  -0.57770  -0.57371
 Alpha  occ. eigenvalues --   -0.57070  -0.56963  -0.56443  -0.55952  -0.55606
 Alpha  occ. eigenvalues --   -0.55331  -0.54833  -0.54564  -0.54475  -0.54308
 Alpha  occ. eigenvalues --   -0.54261  -0.53924  -0.53554  -0.52922  -0.51781
 Alpha  occ. eigenvalues --   -0.51756  -0.51375  -0.50922  -0.50739  -0.50520
 Alpha  occ. eigenvalues --   -0.50191  -0.49917  -0.49544  -0.49112  -0.48659
 Alpha  occ. eigenvalues --   -0.48419  -0.48279  -0.47627  -0.47354  -0.47129
 Alpha  occ. eigenvalues --   -0.46972  -0.46518  -0.45936  -0.45606  -0.45236
 Alpha  occ. eigenvalues --   -0.44902  -0.44764  -0.44527  -0.44009  -0.43934
 Alpha  occ. eigenvalues --   -0.43703  -0.43306  -0.42920  -0.42678  -0.42530
 Alpha  occ. eigenvalues --   -0.42160  -0.41846  -0.41364  -0.41161  -0.40550
 Alpha  occ. eigenvalues --   -0.40138  -0.39880  -0.38715  -0.38215  -0.38113
 Alpha  occ. eigenvalues --   -0.37562  -0.37313  -0.36109  -0.35541  -0.34217
 Alpha  occ. eigenvalues --   -0.33166  -0.33137  -0.32073  -0.31209  -0.30540
 Alpha  occ. eigenvalues --   -0.27666  -0.27515  -0.27103  -0.21333  -0.20515
 Alpha  occ. eigenvalues --   -0.16042  -0.15520
 Alpha virt. eigenvalues --    0.26601   0.26844   0.27565   0.28199   0.30688
 Alpha virt. eigenvalues --    0.32842   0.45693   0.47975   0.48375   0.48712
 Alpha virt. eigenvalues --    0.49292   0.49940   0.50394   0.51447   0.51997

 Mulliken charges:
               1
     1  C   -0.079400
     2  C    0.000517
     3  C   -0.063011
     4  C   -0.089731
     5  C    0.089064
     6  C   -0.015345
     7  N   -0.283788
     8  C    0.015500
     9  C    0.129429
    10  C    0.040853
    11  C   -0.114762
    12  C   -0.107994
    13  C    0.041782
    14  N   -0.293802
    15  C   -0.011873
    16  C   -0.095690
    17  C   -0.100475
    18  C   -0.099520
    19  C   -0.013839
    20  C   -0.104468
    21  C   -0.064422
    22  C    0.318339
    23  O   -0.273853
    24  O   -0.256400
    25  C   -0.055476
    26  C   -0.079336
    27  C   -0.110125
    28  C   -0.000140
    29  C   -0.080110
    30  C   -0.061976
    31  C   -0.090236
    32  C    0.095236
    33  C   -0.013777
    34  N   -0.280972
    35  C    0.015149
    36  C    0.134806
    37  C    0.039581
    38  C   -0.116005
    39  C   -0.105484
    40  C    0.040185
    41  N   -0.081516
    42  C   -0.003363
    43  C   -0.097088
    44  C   -0.099209
    45  C   -0.097864
    46  C   -0.004885
    47  C   -0.098666
    48  C   -0.058619
    49  C    0.327093
    50  O   -0.275465
    51  O   -0.255858
    52  C   -0.054038
    53  C   -0.077323
    54  O   -0.461369
    55  H    0.057168
    56  H    0.057761
    57  H    0.059972
    58  H    0.042872
    59  H    0.053873
    60  H    0.050164
    61  H    0.049131
    62  H    0.049590
    63  H    0.039169
    64  H    0.061779
    65  H    0.050721
    66  H    0.056388
    67  H    0.047148
    68  H    0.052019
    69  H    0.050110
    70  H    0.067771
    71  H    0.038143
    72  H    0.061658
    73  H    0.079622
    74  H    0.048894
    75  H    0.063824
    76  H    0.072737
    77  H    0.072539
    78  H    0.076552
    79  H    0.055276
    80  H    0.071169
    81  H    0.077208
    82  H    0.059763
    83  H    0.059753
    84  H    0.056807
    85  H    0.055600
    86  H    0.060203
    87  H    0.055034
    88  H    0.054701
    89  H    0.049161
    90  H    0.052863
    91  H    0.047853
    92  H    0.084857
    93  H    0.056551
    94  H    0.080779
    95  H    0.058059
    96  H    0.047317
    97  H    0.058227
    98  H    0.067221
    99  H    0.095568
   100  H    0.056097
   101  H    0.089488
   102  H    0.102147
   103  H    0.044739
   104  H    0.061885
   105  H    0.067333
   106  H    0.074268
   107  H    0.078157
   108  H    0.072298
   109  H    0.075227
   110  H    0.054526
 Sum of Mulliken charges =  -0.00000

 Dipole moment (field-independent basis, Debye):
    X=              3.4652    Y=              1.9274    Z=             -2.8229  Tot=              4.8673
 Quadrupole moment (field-independent basis, Debye-Ang):
   XX=           -299.6239   YY=           -305.9583   ZZ=           -292.8988
   XY=             -1.7904   XZ=             10.6402   YZ=              3.9858

 Summary of Natural Population Analysis:

                                       Natural Population
                Natural  -----------------------------------------------
    Atom  No    Charge         Core      Valence    Rydberg      Total
 -----------------------------------------------------------------------
      C    1   -0.06250      1.99992     4.06257    0.00000     6.06250
      C    2    0.01491      1.99991     3.98518    0.00000     5.98509
      C    3   -0.03492      1.99994     4.03498    0.00000     6.03492
      C    4   -0.08671      1.99993     4.08678    0.00000     6.08671
      C    5    0.11253      1.99985     3.88762    0.00000     5.88747
      C    6   -0.02411      1.99990     4.02421    0.00000     6.02411
      N    7   -0.27258      1.99998     5.27260    0.00000     7.27258
      C    8    0.01590      1.99996     3.98415    0.00000     5.98410
      C    9    0.17311      1.99996     3.82693    0.00000     5.82689
      C   10    0.07278      1.99994     3.92728    0.00000     5.92722
      C   11   -0.08448      1.99994     4.08455    0.00000     6.08448
      C   12   -0.07819      1.99996     4.07823    0.00000     6.07819
      C   13    0.06363      1.99998     3.93639    0.00000     5.93637
      N   14   -0.28386      1.99999     5.28388    0.00000     7.28386
      C   15    0.04298      1.99994     3.95707    0.00000     5.95702
      C   16   -0.05889      1.99996     4.05893    0.00000     6.05889
      C   17   -0.06466      1.99995     4.06471    0.00000     6.06466
      C   18   -0.06597      1.99994     4.06603    0.00000     6.06597
      C   19    0.03974      1.99995     3.96031    0.00000     5.96026
      C   20   -0.06695      1.99992     4.06703    0.00000     6.06695
      C   21   -0.08085      1.99994     4.08091    0.00000     6.08085
      C   22    0.40080      1.99991     3.59929    0.00000     5.59920
      O   23   -0.30776      1.99999     6.30778    0.00000     8.30776
      O   24   -0.26816      1.99999     6.26817    0.00000     8.26816
      C   25    0.03493      1.99984     3.96523    0.00000     5.96507
      C   26   -0.01695      1.99992     4.01703    0.00000     6.01695
      C   27   -0.08695      1.99995     4.08699    0.00000     6.08695
      C   28    0.01490      1.99990     3.98520    0.00000     5.98510
      C   29   -0.06453      1.99992     4.06461    0.00000     6.06453
      C   30   -0.03348      1.99994     4.03353    0.00000     6.03348
      C   31   -0.08861      1.99993     4.08868    0.00000     6.08861
      C   32    0.11927      1.99985     3.88087    0.00000     5.88073
      C   33   -0.02265      1.99990     4.02276    0.00000     6.02265
      N   34   -0.27092      1.99998     5.27094    0.00000     7.27092
      C   35    0.01103      1.99996     3.98901    0.00000     5.98897
      C   36    0.17888      1.99996     3.82117    0.00000     5.82112
      C   37    0.06884      1.99991     3.93125    0.00000     5.93116
      C   38   -0.08448      1.99993     4.08455    0.00000     6.08448
      C   39   -0.07481      1.99996     4.07486    0.00000     6.07481
      C   40    0.05899      1.99998     3.94103    0.00000     5.94101
      N   41    0.03276      1.99999     4.96725    0.00000     6.96724
      C   42    0.05001      1.99992     3.95008    0.00000     5.94999
      C   43   -0.06337      1.99995     4.06342    0.00000     6.06337
      C   44   -0.06248      1.99994     4.06253    0.00000     6.06248
      C   45   -0.06682      1.99993     4.06689    0.00000     6.06682
      C   46    0.04578      1.99993     3.95429    0.00000     5.95422
      C   47   -0.06053      1.99991     4.06062    0.00000     6.06053
      C   48   -0.07398      1.99994     4.07404    0.00000     6.07398
      C   49    0.40930      1.99991     3.59080    0.00000     5.59070
      O   50   -0.31083      1.99999     6.31084    0.00000     8.31083
      O   51   -0.26818      1.99999     6.26819    0.00000     8.26818
      C   52    0.03624      1.99984     3.96392    0.00000     5.96376
      C   53   -0.01546      1.99993     4.01553    0.00000     6.01546
      O   54   -0.51390      2.00000     6.51391    0.00000     8.51390
      H   55    0.03228      0.00000     0.96772    0.00000     0.96772
      H   56    0.03049      0.00000     0.96951    0.00000     0.96951
      H   57    0.03579      0.00000     0.96421    0.00000     0.96421
      H   58    0.01239      0.00000     0.98761    0.00000     0.98761
      H   59    0.03094      0.00000     0.96906    0.00000     0.96906
      H   60    0.02807      0.00000     0.97193    0.00000     0.97193
      H   61    0.02870      0.00000     0.97130    0.00000     0.97130
      H   62    0.02916      0.00000     0.97084    0.00000     0.97084
      H   63    0.01144      0.00000     0.98856    0.00000     0.98856
      H   64    0.03569      0.00000     0.96431    0.00000     0.96431
      H   65    0.02936      0.00000     0.97064    0.00000     0.97064
      H   66    0.03431      0.00000     0.96569    0.00000     0.96569
      H   67    0.02560      0.00000     0.97440    0.00000     0.97440
      H   68    0.03036      0.00000     0.96964    0.00000     0.96964
      H   69    0.02873      0.00000     0.97127    0.00000     0.97127
      H   70    0.04292      0.00000     0.95708    0.00000     0.95708
      H   71    0.01062      0.00000     0.98938    0.00000     0.98938
      H   72    0.03542      0.00000     0.96458    0.00000     0.96458
      H   73    0.05309      0.00000     0.94691    0.00000     0.94691
      H   74    0.02595      0.00000     0.97405    0.00000     0.97405
      H   75    0.04063      0.00000     0.95937    0.00000     0.95937
      H   76    0.04144      0.00000     0.95856    0.00000     0.95856
      H   77    0.04100      0.00000     0.95900    0.00000     0.95900
      H   78    0.04555      0.00000     0.95445    0.00000     0.95445
      H   79    0.02988      0.00000     0.97012    0.00000     0.97012
      H   80    0.04685      0.00000     0.95315    0.00000     0.95315
      H   81    0.05275      0.00000     0.94725    0.00000     0.94725
      H   82    0.04101      0.00000     0.95899    0.00000     0.95899
      H   83    0.04080      0.00000     0.95920    0.00000     0.95920
      H   84    0.03170      0.00000     0.96830    0.00000     0.96830
      H   85    0.02818      0.00000     0.97182    0.00000     0.97182
      H   86    0.03612      0.00000     0.96388    0.00000     0.96388
      H   87    0.02284      0.00000     0.97716    0.00000     0.97716
      H   88    0.03109      0.00000     0.96891    0.00000     0.96891
      H   89    0.02650      0.00000     0.97350    0.00000     0.97350
      H   90    0.03203      0.00000     0.96797    0.00000     0.96797
      H   91    0.02688      0.00000     0.97312    0.00000     0.97312
      H   92    0.05324      0.00000     0.94676    0.00000     0.94676
      H   93    0.02590      0.00000     0.97410    0.00000     0.97410
      H   94    0.05606      0.00000     0.94394    0.00000     0.94394
      H   95    0.03626      0.00000     0.96374    0.00000     0.96374
      H   96    0.02514      0.00000     0.97486    0.00000     0.97486
      H   97    0.03589      0.00000     0.96411    0.00000     0.96411
      H   98    0.04418      0.00000     0.95582    0.00000     0.95582
      H   99    0.06785      0.00000     0.93215    0.00000     0.93215
      H  100    0.02580      0.00000     0.97420    0.00000     0.97420
      H  101    0.05802      0.00000     0.94198    0.00000     0.94198
      H  102    0.07280      0.00000     0.92720    0.00000     0.92720
      H  103    0.02125      0.00000     0.97875    0.00000     0.97875
      H  104    0.03876      0.00000     0.96124    0.00000     0.96124
      H  105    0.03609      0.00000     0.96391    0.00000     0.96391
      H  106    0.04346      0.00000     0.95654    0.00000     0.95654
      H  107    0.04648      0.00000     0.95352    0.00000     0.95352
      H  108    0.04849      0.00000     0.95151    0.00000     0.95151
      H  109    0.05095      0.00000     0.94905    0.00000     0.94905
      H  110    0.02907      0.00000     0.97093    0.00000     0.97093
 =======================================================================
   * Total *   -0.00000    107.99663   286.00337    0.00000   394.00000

 Normal termination of Gaussian 16 at Thu May 30 09:53:17 2024.
