 Gaussian 16, Revision B.01,
 Gaussian 16:  ES64L-G16RevB.01 20-Dec-2017

 ----------------------------------------------
 # nmr=giao hf/sto-3g pop=nbo geom=connectivity
 ----------------------------------------------

 -----------------
 Pleiokomenine_C_2
 -----------------
 Symbolic Z-matrix:
 Charge =  0 Multiplicity = 1

                         Standard orientation:
 ---------------------------------------------------------------------
 Center     Atomic      Atomic             Coordinates (Angstroms)
 Number     Number       Type             X           Y           Z
 ---------------------------------------------------------------------
      1          6           0       -1.704763    1.631832   -1.544722
      2          6           0       -1.334715    2.965986   -1.761560
      3          6           0       -2.139519    3.996725   -1.233765
      4          6           0       -3.305589    3.712256   -0.507507
      5          6           0       -3.663093    2.391447   -0.300254
      6          6           0       -2.842306    1.367536   -0.799477
      7          7           0       -4.798052    1.882854    0.384940
      8          6           0       -3.364580    0.042296   -0.306736
      9          6           0       -4.866619    0.479521   -0.099135
     10          6           0       -3.312096   -1.199073   -1.207947
     11          6           0       -5.607473    0.445052   -1.505729
     12          6           0       -5.615037   -0.971751   -2.095895
     13          6           0       -4.721893   -1.882696   -1.229824
     14          7           0       -2.207508   -2.003804   -0.673099
     15          6           0       -2.180432   -3.387056   -1.128908
     16          6           0       -3.529204   -4.106026   -1.115476
     17          6           0       -4.604850   -3.289880   -1.832518
     18          6           0       -2.495967   -0.332820    0.919576
     19          6           0       -2.174569   -1.813543    0.770256
     20          6           0       -5.422884   -1.938144    0.170763
     21          6           0       -5.651346   -0.521638    0.766698
     22          6           0       -5.400543   -0.480129    2.263781
     23          8           0       -4.786368   -1.329632    2.897384
     24          8           0       -6.018670    0.596018    2.825975
     25          6           0       -5.802359    0.727564    4.230697
     26          6           0       -5.979116    2.731413    0.415146
     27          6           0       -0.051510    3.288193   -2.497789
     28          6           0        1.185935    3.029751   -1.663984
     29          6           0        1.706927    1.731456   -1.568496
     30          6           0        1.792616    4.076731   -0.937300
     31          6           0        2.894836    3.843812   -0.102910
     32          6           0        3.369133    2.551697    0.027178
     33          6           0        2.778241    1.509525   -0.720532
     34          7           0        4.388737    2.064394    0.893285
     35          6           0        3.551561    0.240587   -0.440356
     36          6           0        4.012321    0.631467    1.006623
     37          6           0        2.882290   -1.120882   -0.350292
     38          6           0        2.745548    0.550224    2.010025
     39          6           0        2.032025   -0.801378    1.926939
     40          6           0        2.863468   -1.751077    1.050053
     41          7           0        3.623183   -2.012015   -1.332878
     42          6           0        2.772328   -3.209805   -1.593898
     43          6           0        2.624057   -3.993310   -0.273925
     44          6           0        2.181520   -3.136997    0.935080
     45          6           0        4.493384    0.108780   -1.670168
     46          6           0        3.896417   -1.077472   -2.451289
     47          6           0        4.283015   -1.775900    1.716432
     48          6           0        4.999342   -0.377331    1.638291
     49          6           0        6.417652   -0.499579    1.104658
     50          8           0        7.153171   -1.449994    1.354185
     51          8           0        6.836806    0.627367    0.473558
     52          6           0        8.179120    0.568182   -0.005982
     53          6           0        4.724579    2.853625    2.063979
     54          8           0        4.850631   -2.456955   -0.915211
     55          1           0       -1.095600    0.810490   -1.906494
     56          1           0       -1.853538    5.036721   -1.376546
     57          1           0       -3.900116    4.526088   -0.108800
     58          1           0       -3.039077   -0.924233   -2.235907
     59          1           0       -5.141932    1.128297   -2.227062
     60          1           0       -6.643580    0.792852   -1.404779
     61          1           0       -6.642091   -1.356612   -2.132042
     62          1           0       -5.262827   -0.939704   -3.134402
     63          1           0       -1.806624   -3.385919   -2.161107
     64          1           0       -1.444875   -3.964096   -0.555153
     65          1           0       -3.424529   -5.077629   -1.612736
     66          1           0       -3.831866   -4.318470   -0.084449
     67          1           0       -4.344080   -3.219280   -2.896505
     68          1           0       -5.565022   -3.816775   -1.780499
     69          1           0       -1.537615    0.207089    0.907685
     70          1           0       -2.943695   -0.088534    1.882145
     71          1           0       -1.184059   -2.037946    1.178809
     72          1           0       -2.893366   -2.436506    1.304267
     73          1           0       -4.885453   -2.591432    0.858229
     74          1           0       -6.406433   -2.416853    0.057982
     75          1           0       -6.728480   -0.315446    0.670233
     76          1           0       -6.293228    1.645956    4.564224
     77          1           0       -6.246720   -0.117349    4.765788
     78          1           0       -4.732973    0.808005    4.450173
     79          1           0       -6.257047    3.084491   -0.584363
     80          1           0       -5.809363    3.600708    1.059540
     81          1           0       -6.835376    2.190051    0.828863
     82          1           0       -0.005028    2.694173   -3.420316
     83          1           0       -0.060264    4.333139   -2.833906
     84          1           0        1.271061    0.918001   -2.137325
     85          1           0        1.393436    5.086681   -1.005926
     86          1           0        3.334020    4.665331    0.450754
     87          1           0        1.857432   -1.048333   -0.744219
     88          1           0        2.006552    1.342529    1.839088
     89          1           0        3.087356    0.714226    3.041433
     90          1           0        1.887064   -1.212154    2.933584
     91          1           0        1.029057   -0.659683    1.504627
     92          1           0        3.281430   -3.803702   -2.360187
     93          1           0        1.809314   -2.860219   -1.980239
     94          1           0        1.910350   -4.812492   -0.418903
     95          1           0        3.582788   -4.465217   -0.025127
     96          1           0        1.098067   -2.987955    0.835540
     97          1           0        2.324753   -3.708769    1.859832
     98          1           0        4.553539    0.993575   -2.314374
     99          1           0        5.515365   -0.133806   -1.378597
    100          1           0        2.945610   -0.845113   -2.940900
    101          1           0        4.597597   -1.545031   -3.148461
    102          1           0        4.905025   -2.586791    1.330370
    103          1           0        4.160451   -2.030239    2.779586
    104          1           0        5.178342   -0.055996    2.676114
    105          1           0        8.880478    0.498578    0.831182
    106          1           0        8.383695    1.492705   -0.552875
    107          1           0        8.308077   -0.274212   -0.693116
    108          1           0        5.466983    2.331565    2.675547
    109          1           0        5.173562    3.807903    1.768264
    110          1           0        3.849255    3.057893    2.689792
 ---------------------------------------------------------------------

 SCF Done:  E(RHF) =  -2300.19879288     A.U. after   16 cycles

      1  C    Isotropic =   125.2474   Anisotropy =   150.5452

      2  C    Isotropic =   120.2738   Anisotropy =   156.8283

      3  C    Isotropic =   119.4775   Anisotropy =   150.2687

      4  C    Isotropic =   133.6444   Anisotropy =   142.5810

      5  C    Isotropic =   109.3745   Anisotropy =   126.9427

      6  C    Isotropic =   117.6302   Anisotropy =   140.5565

      7  N    Isotropic =   274.4000   Anisotropy =    82.4266

      8  C    Isotropic =   196.1131   Anisotropy =    13.0085

      9  C    Isotropic =   181.1164   Anisotropy =    45.0503

     10  C    Isotropic =   190.3541   Anisotropy =    30.5705

     11  C    Isotropic =   213.8012   Anisotropy =    19.3703

     12  C    Isotropic =   212.7613   Anisotropy =    21.4737

     13  C    Isotropic =   213.5883   Anisotropy =     8.2641

     14  N    Isotropic =   301.8535   Anisotropy =    54.2914

     15  C    Isotropic =   205.2755   Anisotropy =    33.3542

     16  C    Isotropic =   224.2305   Anisotropy =     9.5476

     17  C    Isotropic =   215.3567   Anisotropy =    19.4248

     18  C    Isotropic =   210.6495   Anisotropy =    37.0038

     19  C    Isotropic =   199.9581   Anisotropy =    39.9067

     20  C    Isotropic =   212.1569   Anisotropy =    21.0020

     21  C    Isotropic =   209.1082   Anisotropy =     9.5305

     22  C    Isotropic =    96.4456   Anisotropy =    98.4170

     23  O    Isotropic =  -134.5591   Anisotropy =   888.6239

     24  O    Isotropic =   283.7680   Anisotropy =   139.9973

     25  C    Isotropic =   197.3731   Anisotropy =    57.1981

     26  C    Isotropic =   209.9594   Anisotropy =    42.1677

     27  C    Isotropic =   206.5310   Anisotropy =    15.0679

     28  C    Isotropic =   120.6581   Anisotropy =   156.9518

     29  C    Isotropic =   127.5669   Anisotropy =   146.0294

     30  C    Isotropic =   119.4805   Anisotropy =   151.6801

     31  C    Isotropic =   133.5784   Anisotropy =   143.7784

     32  C    Isotropic =   107.5800   Anisotropy =   130.8822

     33  C    Isotropic =   117.3091   Anisotropy =   142.1993

     34  N    Isotropic =   271.0197   Anisotropy =    82.7547

     35  C    Isotropic =   200.9565   Anisotropy =    16.9881

     36  C    Isotropic =   178.8415   Anisotropy =    38.9543

     37  C    Isotropic =   183.3695   Anisotropy =    41.9697

     38  C    Isotropic =   210.9972   Anisotropy =    23.5153

     39  C    Isotropic =   212.8775   Anisotropy =    18.6140

     40  C    Isotropic =   211.4697   Anisotropy =    10.5933

     41  N    Isotropic =   235.4398   Anisotropy =    23.8858

     42  C    Isotropic =   193.6997   Anisotropy =    49.7959

     43  C    Isotropic =   219.1723   Anisotropy =     8.7161

     44  C    Isotropic =   214.8326   Anisotropy =    21.3231

     45  C    Isotropic =   206.6822   Anisotropy =    33.4992

     46  C    Isotropic =   190.6345   Anisotropy =    51.6772

     47  C    Isotropic =   211.1151   Anisotropy =    26.0293

     48  C    Isotropic =   207.5832   Anisotropy =    13.2259

     49  C    Isotropic =    98.4691   Anisotropy =   103.6557

     50  O    Isotropic =  -133.0674   Anisotropy =   875.2937

     51  O    Isotropic =   286.2878   Anisotropy =   132.3876

     52  C    Isotropic =   197.5653   Anisotropy =    58.4896

     53  C    Isotropic =   210.7324   Anisotropy =    41.6072

     54  O    Isotropic =    79.5888   Anisotropy =   398.2572

     55  H    Isotropic =    25.6922   Anisotropy =    14.1658

     56  H    Isotropic =    25.7173   Anisotropy =     6.6332

     57  H    Isotropic =    26.6123   Anisotropy =     7.9701

     58  H    Isotropic =    31.4997   Anisotropy =     8.0755

     59  H    Isotropic =    32.8862   Anisotropy =     8.8046

     60  H    Isotropic =    32.1668   Anisotropy =    14.1015

     61  H    Isotropic =    32.3308   Anisotropy =    15.5557

     62  H    Isotropic =    32.5625   Anisotropy =    13.3944

     63  H    Isotropic =    31.8440   Anisotropy =    13.1513

     64  H    Isotropic =    31.8592   Anisotropy =    15.0273

     65  H    Isotropic =    32.6177   Anisotropy =    17.5051

     66  H    Isotropic =    32.5251   Anisotropy =    10.2097

     67  H    Isotropic =    32.6363   Anisotropy =    12.9987

     68  H    Isotropic =    32.4593   Anisotropy =    15.2003

     69  H    Isotropic =    32.8648   Anisotropy =    15.0009

     70  H    Isotropic =    33.1110   Anisotropy =    10.2820

     71  H    Isotropic =    32.0333   Anisotropy =    17.9035

     72  H    Isotropic =    31.9685   Anisotropy =     8.3750

     73  H    Isotropic =    31.4120   Anisotropy =     8.9071

     74  H    Isotropic =    32.2109   Anisotropy =    15.1141

     75  H    Isotropic =    31.2050   Anisotropy =    13.0101

     76  H    Isotropic =    30.5765   Anisotropy =    12.1902

     77  H    Isotropic =    30.6029   Anisotropy =    11.6802

     78  H    Isotropic =    30.7184   Anisotropy =     7.4227

     79  H    Isotropic =    31.9166   Anisotropy =    12.1809

     80  H    Isotropic =    30.7509   Anisotropy =    14.4324

     81  H    Isotropic =    30.9234   Anisotropy =    10.9740

     82  H    Isotropic =    30.0364   Anisotropy =     7.8877

     83  H    Isotropic =    29.8705   Anisotropy =    12.5489

     84  H    Isotropic =    25.9159   Anisotropy =    12.2106

     85  H    Isotropic =    25.7479   Anisotropy =     6.8607

     86  H    Isotropic =    26.5139   Anisotropy =     7.7634

     87  H    Isotropic =    31.5028   Anisotropy =    10.2226

     88  H    Isotropic =    33.4785   Anisotropy =     8.4009

     89  H    Isotropic =    32.2588   Anisotropy =    12.4685

     90  H    Isotropic =    32.3405   Anisotropy =    13.5044

     91  H    Isotropic =    33.0146   Anisotropy =    17.8897

     92  H    Isotropic =    30.7866   Anisotropy =    14.2473

     93  H    Isotropic =    31.7252   Anisotropy =    11.5424

     94  H    Isotropic =    32.2514   Anisotropy =    15.8079

     95  H    Isotropic =    31.0543   Anisotropy =    14.1647

     96  H    Isotropic =    32.5133   Anisotropy =    16.4093

     97  H    Isotropic =    32.1057   Anisotropy =    13.9188

     98  H    Isotropic =    32.3341   Anisotropy =    11.0759

     99  H    Isotropic =    30.5195   Anisotropy =    14.1511

    100  H    Isotropic =    31.3743   Anisotropy =    10.1626

    101  H    Isotropic =    30.7762   Anisotropy =    15.1950

    102  H    Isotropic =    30.0451   Anisotropy =    12.0979

    103  H    Isotropic =    31.7729   Anisotropy =    14.2942

    104  H    Isotropic =    31.4268   Anisotropy =    12.6425

    105  H    Isotropic =    30.5612   Anisotropy =    12.6707

    106  H    Isotropic =    30.6013   Anisotropy =    11.1873

    107  H    Isotropic =    30.4690   Anisotropy =     9.1701

    108  H    Isotropic =    31.3212   Anisotropy =    11.7576

    109  H    Isotropic =    30.7348   Anisotropy =    15.1028

    110  H    Isotropic =    31.9973   Anisotropy =    10.9730

 The electronic state is 1-A.
 Alpha  occ. eigenvalues --  -20.30840 -20.28881 -20.24826 -20.22094 -19.91770
 Alpha  occ. eigenvalues --  -15.48013 -15.33776 -15.33368 -15.31133 -11.16743
 Alpha  occ. eigenvalues --  -11.14527 -11.10731 -11.09700 -11.09416 -11.09224
 Alpha  occ. eigenvalues --  -11.09123 -11.09026 -11.08454 -11.08143 -11.07901
 Alpha  occ. eigenvalues --  -11.07471 -11.07409 -11.06666 -11.06554 -11.06318
 Alpha  occ. eigenvalues --  -11.06028 -11.06006 -11.05784 -11.05748 -11.05721
 Alpha  occ. eigenvalues --  -11.05465 -11.04909 -11.04750 -11.04696 -11.04593
 Alpha  occ. eigenvalues --  -11.04565 -11.04456 -11.04378 -11.04283 -11.04202
 Alpha  occ. eigenvalues --  -11.04055 -11.03890 -11.03477 -11.02943 -11.02304
 Alpha  occ. eigenvalues --  -11.02270 -11.02145 -11.01968 -11.01930 -11.01921
 Alpha  occ. eigenvalues --  -11.01876 -11.01704 -11.01526 -11.01482  -1.38060
 Alpha  occ. eigenvalues --   -1.35960  -1.29472  -1.27876  -1.25252  -1.21729
 Alpha  occ. eigenvalues --   -1.20693  -1.19261  -1.10308  -1.09978  -1.09027
 Alpha  occ. eigenvalues --   -1.07650  -1.05742  -1.05207  -1.02572  -1.01033
 Alpha  occ. eigenvalues --   -0.99312  -0.98637  -0.98582  -0.97420  -0.97135
 Alpha  occ. eigenvalues --   -0.96289  -0.95052  -0.94852  -0.94196  -0.92429
 Alpha  occ. eigenvalues --   -0.91848  -0.91531  -0.90083  -0.89531  -0.87988
 Alpha  occ. eigenvalues --   -0.86500  -0.84920  -0.82969  -0.82217  -0.80739
 Alpha  occ. eigenvalues --   -0.80283  -0.79969  -0.78169  -0.78021  -0.77631
 Alpha  occ. eigenvalues --   -0.77334  -0.74487  -0.74229  -0.72728  -0.72371
 Alpha  occ. eigenvalues --   -0.71442  -0.70344  -0.69700  -0.68346  -0.66221
 Alpha  occ. eigenvalues --   -0.65302  -0.65066  -0.64666  -0.63861  -0.63072
 Alpha  occ. eigenvalues --   -0.62542  -0.62153  -0.61567  -0.61409  -0.61137
 Alpha  occ. eigenvalues --   -0.60890  -0.60052  -0.59249  -0.58989  -0.58523
 Alpha  occ. eigenvalues --   -0.58442  -0.58188  -0.57726  -0.57634  -0.57392
 Alpha  occ. eigenvalues --   -0.57057  -0.56726  -0.56458  -0.55834  -0.55532
 Alpha  occ. eigenvalues --   -0.55053  -0.54871  -0.54588  -0.54490  -0.54333
 Alpha  occ. eigenvalues --   -0.54183  -0.54015  -0.53529  -0.52723  -0.52019
 Alpha  occ. eigenvalues --   -0.51679  -0.51224  -0.51009  -0.50569  -0.50351
 Alpha  occ. eigenvalues --   -0.50149  -0.49785  -0.49338  -0.49180  -0.48606
 Alpha  occ. eigenvalues --   -0.48323  -0.48177  -0.47837  -0.47295  -0.46979
 Alpha  occ. eigenvalues --   -0.46529  -0.46342  -0.45886  -0.45831  -0.45184
 Alpha  occ. eigenvalues --   -0.45174  -0.44769  -0.44646  -0.44355  -0.43923
 Alpha  occ. eigenvalues --   -0.43813  -0.43171  -0.42977  -0.42882  -0.42682
 Alpha  occ. eigenvalues --   -0.42374  -0.42003  -0.41606  -0.41386  -0.40878
 Alpha  occ. eigenvalues --   -0.40482  -0.39700  -0.38756  -0.38586  -0.37952
 Alpha  occ. eigenvalues --   -0.37718  -0.37087  -0.36791  -0.35397  -0.34395
 Alpha  occ. eigenvalues --   -0.33544  -0.32888  -0.32311  -0.31147  -0.30653
 Alpha  occ. eigenvalues --   -0.27568  -0.27137  -0.26580  -0.21367  -0.20374
 Alpha  occ. eigenvalues --   -0.15711  -0.15212
 Alpha virt. eigenvalues --    0.26531   0.26902   0.27350   0.29218   0.30223
 Alpha virt. eigenvalues --    0.33050   0.45821   0.47940   0.47970   0.49238
 Alpha virt. eigenvalues --    0.49395   0.50028   0.50502   0.51929   0.51981

 Mulliken charges:
               1
     1  C   -0.074801
     2  C    0.000620
     3  C   -0.061612
     4  C   -0.089351
     5  C    0.089250
     6  C   -0.013003
     7  N   -0.286547
     8  C    0.017779
     9  C    0.128244
    10  C    0.039648
    11  C   -0.114892
    12  C   -0.105464
    13  C    0.027963
    14  N   -0.291734
    15  C   -0.015764
    16  C   -0.108196
    17  C   -0.102099
    18  C   -0.105209
    19  C   -0.021258
    20  C   -0.110580
    21  C   -0.066451
    22  C    0.319732
    23  O   -0.277056
    24  O   -0.255275
    25  C   -0.055809
    26  C   -0.078860
    27  C   -0.109503
    28  C    0.001748
    29  C   -0.078543
    30  C   -0.061332
    31  C   -0.089834
    32  C    0.093738
    33  C   -0.012895
    34  N   -0.278558
    35  C    0.015456
    36  C    0.134670
    37  C    0.039369
    38  C   -0.116279
    39  C   -0.105923
    40  C    0.040877
    41  N   -0.080744
    42  C   -0.003261
    43  C   -0.096627
    44  C   -0.099433
    45  C   -0.095737
    46  C   -0.004302
    47  C   -0.098861
    48  C   -0.059350
    49  C    0.324545
    50  O   -0.273436
    51  O   -0.255629
    52  C   -0.055680
    53  C   -0.078065
    54  O   -0.461683
    55  H    0.061787
    56  H    0.056164
    57  H    0.058502
    58  H    0.055713
    59  H    0.054637
    60  H    0.051206
    61  H    0.048863
    62  H    0.050448
    63  H    0.052188
    64  H    0.060080
    65  H    0.054557
    66  H    0.051510
    67  H    0.050182
    68  H    0.052296
    69  H    0.062238
    70  H    0.064606
    71  H    0.055221
    72  H    0.053172
    73  H    0.067753
    74  H    0.051800
    75  H    0.065256
    76  H    0.077546
    77  H    0.072567
    78  H    0.074733
    79  H    0.055500
    80  H    0.072175
    81  H    0.076449
    82  H    0.057184
    83  H    0.058066
    84  H    0.053375
    85  H    0.056559
    86  H    0.060036
    87  H    0.057298
    88  H    0.055297
    89  H    0.049208
    90  H    0.053012
    91  H    0.048823
    92  H    0.083873
    93  H    0.057519
    94  H    0.057006
    95  H    0.081593
    96  H    0.048326
    97  H    0.058287
    98  H    0.066185
    99  H    0.092475
   100  H    0.056404
   101  H    0.089386
   102  H    0.100988
   103  H    0.045126
   104  H    0.061578
   105  H    0.069936
   106  H    0.074076
   107  H    0.076490
   108  H    0.072030
   109  H    0.073491
   110  H    0.055223
 Sum of Mulliken charges =  -0.00000

 Dipole moment (field-independent basis, Debye):
    X=             -6.1363    Y=              1.6835    Z=             -0.6249  Tot=              6.3936
 Quadrupole moment (field-independent basis, Debye-Ang):
   XX=           -312.5418   YY=           -301.6713   ZZ=           -289.9807
   XY=             18.9599   XZ=             -0.0239   YZ=              8.7925

 Summary of Natural Population Analysis:

                                       Natural Population
                Natural  -----------------------------------------------
    Atom  No    Charge         Core      Valence    Rydberg      Total
 -----------------------------------------------------------------------
      C    1   -0.05662      1.99993     4.05669    0.00000     6.05662
      C    2    0.01469      1.99990     3.98541    0.00000     5.98531
      C    3   -0.03333      1.99994     4.03339    0.00000     6.03333
      C    4   -0.08604      1.99993     4.08611    0.00000     6.08604
      C    5    0.11211      1.99985     3.88804    0.00000     5.88789
      C    6   -0.02432      1.99990     4.02441    0.00000     6.02432
      N    7   -0.27489      1.99998     5.27491    0.00000     7.27489
      C    8    0.01935      1.99996     3.98069    0.00000     5.98065
      C    9    0.17160      1.99996     3.82844    0.00000     5.82840
      C   10    0.07341      1.99993     3.92666    0.00000     5.92659
      C   11   -0.08517      1.99994     4.08523    0.00000     6.08517
      C   12   -0.07346      1.99996     4.07350    0.00000     6.07346
      C   13    0.05034      1.99998     3.94968    0.00000     5.94966
      N   14   -0.27955      1.99999     5.27956    0.00000     7.27955
      C   15    0.03796      1.99994     3.96210    0.00000     5.96204
      C   16   -0.07460      1.99997     4.07463    0.00000     6.07460
      C   17   -0.06845      1.99996     4.06849    0.00000     6.06845
      C   18   -0.07514      1.99995     4.07519    0.00000     6.07514
      C   19    0.03208      1.99994     3.96798    0.00000     5.96792
      C   20   -0.07378      1.99992     4.07385    0.00000     6.07378
      C   21   -0.08433      1.99994     4.08438    0.00000     6.08433
      C   22    0.40297      1.99991     3.59712    0.00000     5.59703
      O   23   -0.31122      1.99999     6.31124    0.00000     8.31122
      O   24   -0.26684      1.99999     6.26685    0.00000     8.26684
      C   25    0.03462      1.99984     3.96554    0.00000     5.96538
      C   26   -0.01622      1.99992     4.01630    0.00000     6.01622
      C   27   -0.08614      1.99996     4.08619    0.00000     6.08614
      C   28    0.01590      1.99990     3.98420    0.00000     5.98410
      C   29   -0.06278      1.99992     4.06285    0.00000     6.06278
      C   30   -0.03295      1.99994     4.03301    0.00000     6.03295
      C   31   -0.08775      1.99993     4.08782    0.00000     6.08775
      C   32    0.11786      1.99985     3.88229    0.00000     5.88214
      C   33   -0.02133      1.99990     4.02143    0.00000     6.02133
      N   34   -0.26865      1.99998     5.26867    0.00000     7.26865
      C   35    0.01077      1.99996     3.98928    0.00000     5.98923
      C   36    0.17934      1.99996     3.82070    0.00000     5.82066
      C   37    0.06835      1.99991     3.93174    0.00000     5.93165
      C   38   -0.08449      1.99993     4.08457    0.00000     6.08449
      C   39   -0.07548      1.99996     4.07552    0.00000     6.07548
      C   40    0.06010      1.99998     3.93992    0.00000     5.93990
      N   41    0.03396      1.99999     4.96605    0.00000     6.96604
      C   42    0.05003      1.99992     3.95006    0.00000     5.94997
      C   43   -0.06289      1.99995     4.06294    0.00000     6.06289
      C   44   -0.06280      1.99994     4.06286    0.00000     6.06280
      C   45   -0.06428      1.99993     4.06435    0.00000     6.06428
      C   46    0.04625      1.99993     3.95382    0.00000     5.95375
      C   47   -0.06080      1.99991     4.06089    0.00000     6.06080
      C   48   -0.07476      1.99994     4.07483    0.00000     6.07476
      C   49    0.40499      1.99991     3.59509    0.00000     5.59501
      O   50   -0.30898      1.99999     6.30899    0.00000     8.30898
      O   51   -0.26675      1.99999     6.26676    0.00000     8.26675
      C   52    0.03475      1.99984     3.96541    0.00000     5.96525
      C   53   -0.01618      1.99993     4.01625    0.00000     6.01618
      O   54   -0.51460      2.00000     6.51460    0.00000     8.51460
      H   55    0.03594      0.00000     0.96406    0.00000     0.96406
      H   56    0.02890      0.00000     0.97110    0.00000     0.97110
      H   57    0.03429      0.00000     0.96571    0.00000     0.96571
      H   58    0.02451      0.00000     0.97549    0.00000     0.97549
      H   59    0.03172      0.00000     0.96828    0.00000     0.96828
      H   60    0.02903      0.00000     0.97097    0.00000     0.97097
      H   61    0.02781      0.00000     0.97219    0.00000     0.97219
      H   62    0.02933      0.00000     0.97067    0.00000     0.97067
      H   63    0.02526      0.00000     0.97474    0.00000     0.97474
      H   64    0.03433      0.00000     0.96567    0.00000     0.96567
      H   65    0.03464      0.00000     0.96536    0.00000     0.96536
      H   66    0.03082      0.00000     0.96918    0.00000     0.96918
      H   67    0.02937      0.00000     0.97063    0.00000     0.97063
      H   68    0.03135      0.00000     0.96865    0.00000     0.96865
      H   69    0.04101      0.00000     0.95899    0.00000     0.95899
      H   70    0.04187      0.00000     0.95813    0.00000     0.95813
      H   71    0.02908      0.00000     0.97092    0.00000     0.97092
      H   72    0.02404      0.00000     0.97596    0.00000     0.97596
      H   73    0.04247      0.00000     0.95753    0.00000     0.95753
      H   74    0.02960      0.00000     0.97040    0.00000     0.97040
      H   75    0.04236      0.00000     0.95764    0.00000     0.95764
      H   76    0.04644      0.00000     0.95356    0.00000     0.95356
      H   77    0.04100      0.00000     0.95900    0.00000     0.95900
      H   78    0.04324      0.00000     0.95676    0.00000     0.95676
      H   79    0.03007      0.00000     0.96993    0.00000     0.96993
      H   80    0.04779      0.00000     0.95221    0.00000     0.95221
      H   81    0.05205      0.00000     0.94795    0.00000     0.94795
      H   82    0.03866      0.00000     0.96134    0.00000     0.96134
      H   83    0.03896      0.00000     0.96104    0.00000     0.96104
      H   84    0.02885      0.00000     0.97115    0.00000     0.97115
      H   85    0.02923      0.00000     0.97077    0.00000     0.97077
      H   86    0.03587      0.00000     0.96413    0.00000     0.96413
      H   87    0.02487      0.00000     0.97513    0.00000     0.97513
      H   88    0.03155      0.00000     0.96845    0.00000     0.96845
      H   89    0.02648      0.00000     0.97352    0.00000     0.97352
      H   90    0.03217      0.00000     0.96783    0.00000     0.96783
      H   91    0.02773      0.00000     0.97227    0.00000     0.97227
      H   92    0.05236      0.00000     0.94764    0.00000     0.94764
      H   93    0.02678      0.00000     0.97322    0.00000     0.97322
      H   94    0.03530      0.00000     0.96470    0.00000     0.96470
      H   95    0.05678      0.00000     0.94322    0.00000     0.94322
      H   96    0.02594      0.00000     0.97406    0.00000     0.97406
      H   97    0.03598      0.00000     0.96402    0.00000     0.96402
      H   98    0.04313      0.00000     0.95687    0.00000     0.95687
      H   99    0.06516      0.00000     0.93484    0.00000     0.93484
      H  100    0.02602      0.00000     0.97398    0.00000     0.97398
      H  101    0.05790      0.00000     0.94210    0.00000     0.94210
      H  102    0.07181      0.00000     0.92819    0.00000     0.92819
      H  103    0.02161      0.00000     0.97839    0.00000     0.97839
      H  104    0.03861      0.00000     0.96139    0.00000     0.96139
      H  105    0.03868      0.00000     0.96132    0.00000     0.96132
      H  106    0.04326      0.00000     0.95674    0.00000     0.95674
      H  107    0.04491      0.00000     0.95509    0.00000     0.95509
      H  108    0.04817      0.00000     0.95183    0.00000     0.95183
      H  109    0.04932      0.00000     0.95068    0.00000     0.95068
      H  110    0.02972      0.00000     0.97028    0.00000     0.97028
 =======================================================================
   * Total *   -0.00000    107.99664   286.00336    0.00000   394.00000

 Normal termination of Gaussian 16 at Thu May 30 09:33:35 2024.
