 Gaussian 16, Revision B.01,
 Gaussian 16:  ES64L-G16RevB.01 20-Dec-2017

 ----------------------------------------------
 # nmr=giao hf/sto-3g pop=nbo geom=connectivity
 ----------------------------------------------

 -----------------
 Pleiokomenine_C_2
 -----------------
 Symbolic Z-matrix:
 Charge =  0 Multiplicity = 1

                         Standard orientation:
 ---------------------------------------------------------------------
 Center     Atomic      Atomic             Coordinates (Angstroms)
 Number     Number       Type             X           Y           Z
 ---------------------------------------------------------------------
      1          6           0        1.911953    1.819973   -1.282071
      2          6           0        1.653441    3.197184   -1.292217
      3          6           0        2.557250    4.069852   -0.652546
      4          6           0        3.695206    3.584018    0.008690
      5          6           0        3.912385    2.217651    0.057882
      6          6           0        3.022132    1.352699   -0.597999
      7          7           0        4.945971    1.512074    0.731319
      8          6           0        3.511278   -0.064834   -0.446459
      9          6           0        4.361283    0.152012    0.866903
     10          6           0        2.509196   -1.207263   -0.215127
     11          6           0        3.383223    0.131932    2.123529
     12          6           0        2.673112   -1.220451    2.257028
     13          6           0        2.974469   -2.069806    1.007307
     14          7           0        2.427456   -1.901104   -1.504353
     15          6           0        1.827847   -3.228077   -1.455385
     16          6           0        2.299497   -4.117536   -0.306128
     17          6           0        2.198230   -3.393964    1.035712
     18          6           0        4.214134   -0.426512   -1.775682
     19          6           0        3.739590   -1.829062   -2.134162
     20          6           0        4.519222   -2.331454    1.044902
     21          6           0        5.334378   -1.010669    1.127834
     22          6           0        6.592869   -1.058260    0.279735
     23          8           0        6.811656   -1.872529   -0.608844
     24          8           0        7.487278   -0.116492    0.691016
     25          6           0        8.688285   -0.073362   -0.078950
     26          6           0        5.565104    2.182625    1.864663
     27          6           0        0.397826    3.728716   -1.950790
     28          6           0       -0.852398    3.418319   -1.152384
     29          6           0       -1.470798    2.164751   -1.281633
     30          6           0       -1.345534    4.345522   -0.207867
     31          6           0       -2.446809    4.042311    0.602221
     32          6           0       -3.034919    2.796609    0.478875
     33          6           0       -2.532003    1.860704   -0.445741
     34          7           0       -4.202851    2.331422    1.179188
     35          6           0       -3.205997    0.536312   -0.181428
     36          6           0       -4.543122    1.116785    0.380393
     37          6           0       -3.562019   -0.432003   -1.298792
     38          6           0       -5.389602    1.771414   -0.857859
     39          6           0       -5.537606    0.814396   -2.040501
     40          6           0       -5.061825   -0.574116   -1.600663
     41          7           0       -2.965098   -1.769332   -0.892761
     42          6           0       -2.923863   -2.642202   -2.104402
     43          6           0       -4.369720   -2.890627   -2.576932
     44          6           0       -5.216160   -1.607824   -2.742350
     45          6           0       -2.153095   -0.246115    0.658793
     46          6           0       -1.672750   -1.356967   -0.290204
     47          6           0       -5.908305   -0.895260   -0.325029
     48          6           0       -5.545940    0.046573    0.889485
     49          6           0       -5.214895   -0.771308    2.133551
     50          8           0       -4.344599   -0.525979    2.956596
     51          8           0       -6.147634   -1.759654    2.301623
     52          6           0       -5.893962   -2.614283    3.415502
     53          6           0       -3.974412    2.264713    2.615013
     54          8           0       -3.649139   -2.441667    0.090006
     55          1           0        1.261080    1.118442   -1.792743
     56          1           0        2.373936    5.142232   -0.657664
     57          1           0        4.372064    4.280340    0.489934
     58          1           0        1.507505   -0.809782   -0.002363
     59          1           0        3.939627    0.332215    3.048182
     60          1           0        2.627115    0.924738    2.063305
     61          1           0        3.011595   -1.733445    3.166044
     62          1           0        1.594596   -1.059467    2.378927
     63          1           0        0.742641   -3.096006   -1.358798
     64          1           0        1.971297   -3.747965   -2.410513
     65          1           0        1.681646   -5.022746   -0.273981
     66          1           0        3.327008   -4.451624   -0.485851
     67          1           0        1.139686   -3.201351    1.254276
     68          1           0        2.568793   -4.045304    1.836067
     69          1           0        3.893255    0.240162   -2.589293
     70          1           0        5.299383   -0.337807   -1.751844
     71          1           0        3.664748   -1.947266   -3.220508
     72          1           0        4.433277   -2.589538   -1.771668
     73          1           0        4.834987   -2.956699    0.209506
     74          1           0        4.758277   -2.929686    1.935980
     75          1           0        5.709976   -0.942733    2.160576
     76          1           0        9.304410    0.746440    0.300372
     77          1           0        8.463956    0.122086   -1.132423
     78          1           0        9.246905   -1.007659    0.032873
     79          1           0        4.822450    2.558138    2.577741
     80          1           0        6.178133    3.023187    1.522151
     81          1           0        6.230376    1.500832    2.402939
     82          1           0        0.477288    4.812595   -2.104572
     83          1           0        0.309099    3.302624   -2.958883
     84          1           0       -1.079655    1.426818   -1.973057
     85          1           0       -0.863268    5.314263   -0.094783
     86          1           0       -2.835107    4.774424    1.301204
     87          1           0       -3.021371   -0.142911   -2.212693
     88          1           0       -4.954369    2.708227   -1.228498
     89          1           0       -6.383976    2.065675   -0.492482
     90          1           0       -6.580679    0.794170   -2.379185
     91          1           0       -4.944584    1.179737   -2.888668
     92          1           0       -2.429598   -3.573904   -1.809893
     93          1           0       -2.321916   -2.132081   -2.863479
     94          1           0       -4.876740   -3.546022   -1.857879
     95          1           0       -4.350167   -3.437497   -3.526693
     96          1           0       -6.270898   -1.880403   -2.868663
     97          1           0       -4.907142   -1.139095   -3.686621
     98          1           0       -1.296698    0.342726    1.008170
     99          1           0       -2.588615   -0.703107    1.543952
    100          1           0       -1.225632   -2.213291    0.222506
    101          1           0       -1.024053   -0.992033   -1.092750
    102          1           0       -5.854960   -1.956839   -0.072309
    103          1           0       -6.971434   -0.740437   -0.561482
    104          1           0       -6.465410    0.573973    1.187638
    105          1           0       -4.897901   -3.062466    3.341946
    106          1           0       -6.002888   -2.059863    4.352587
    107          1           0       -6.634912   -3.418403    3.400908
    108          1           0       -3.126397    1.621766    2.872359
    109          1           0       -4.876034    1.909140    3.122064
    110          1           0       -3.776599    3.262918    3.022802
 ---------------------------------------------------------------------

 SCF Done:  E(RHF) =  -2300.19466368     A.U. after   15 cycles

      1  C    Isotropic =   125.0755   Anisotropy =   150.1256

      2  C    Isotropic =   121.0681   Anisotropy =   155.8862

      3  C    Isotropic =   119.6159   Anisotropy =   149.5436

      4  C    Isotropic =   133.6509   Anisotropy =   142.6862

      5  C    Isotropic =   108.8249   Anisotropy =   127.4136

      6  C    Isotropic =   117.6408   Anisotropy =   139.8765

      7  N    Isotropic =   273.5381   Anisotropy =    81.7374

      8  C    Isotropic =   196.1063   Anisotropy =    14.6785

      9  C    Isotropic =   181.2464   Anisotropy =    45.0102

     10  C    Isotropic =   190.1183   Anisotropy =    27.6693

     11  C    Isotropic =   213.9502   Anisotropy =    18.7087

     12  C    Isotropic =   213.0924   Anisotropy =    19.7163

     13  C    Isotropic =   213.8610   Anisotropy =     8.7795

     14  N    Isotropic =   302.1005   Anisotropy =    52.3255

     15  C    Isotropic =   205.4305   Anisotropy =    33.0649

     16  C    Isotropic =   224.3727   Anisotropy =     7.6612

     17  C    Isotropic =   215.5347   Anisotropy =    18.7526

     18  C    Isotropic =   210.9035   Anisotropy =    36.5210

     19  C    Isotropic =   199.5007   Anisotropy =    44.0699

     20  C    Isotropic =   212.2546   Anisotropy =    22.4661

     21  C    Isotropic =   209.1601   Anisotropy =    10.9914

     22  C    Isotropic =    96.4639   Anisotropy =    98.7466

     23  O    Isotropic =  -134.8182   Anisotropy =   887.6156

     24  O    Isotropic =   283.8618   Anisotropy =   139.8694

     25  C    Isotropic =   197.3650   Anisotropy =    57.8875

     26  C    Isotropic =   209.9400   Anisotropy =    41.5692

     27  C    Isotropic =   206.4285   Anisotropy =    14.7985

     28  C    Isotropic =   117.2360   Anisotropy =   162.6620

     29  C    Isotropic =   127.7426   Anisotropy =   146.8649

     30  C    Isotropic =   120.1984   Anisotropy =   152.3503

     31  C    Isotropic =   128.3134   Anisotropy =   152.2689

     32  C    Isotropic =   107.0487   Anisotropy =   126.1327

     33  C    Isotropic =   113.6311   Anisotropy =   147.1551

     34  N    Isotropic =   275.9522   Anisotropy =    78.2173

     35  C    Isotropic =   199.5928   Anisotropy =    12.8595

     36  C    Isotropic =   180.2369   Anisotropy =    35.9536

     37  C    Isotropic =   183.3474   Anisotropy =    43.4899

     38  C    Isotropic =   206.6638   Anisotropy =    32.7022

     39  C    Isotropic =   212.9020   Anisotropy =    19.5372

     40  C    Isotropic =   211.6658   Anisotropy =    11.5708

     41  N    Isotropic =   235.2270   Anisotropy =    23.5664

     42  C    Isotropic =   193.6264   Anisotropy =    49.4109

     43  C    Isotropic =   219.3386   Anisotropy =    11.8570

     44  C    Isotropic =   214.6696   Anisotropy =    22.0991

     45  C    Isotropic =   207.2416   Anisotropy =    37.2040

     46  C    Isotropic =   190.6163   Anisotropy =    55.9342

     47  C    Isotropic =   210.8806   Anisotropy =    25.1303

     48  C    Isotropic =   205.6869   Anisotropy =    14.8799

     49  C    Isotropic =    97.0058   Anisotropy =    95.3878

     50  O    Isotropic =  -118.0033   Anisotropy =   854.1478

     51  O    Isotropic =   286.4546   Anisotropy =   144.0018

     52  C    Isotropic =   197.5746   Anisotropy =    56.3697

     53  C    Isotropic =   207.6755   Anisotropy =    41.3169

     54  O    Isotropic =    77.1783   Anisotropy =   401.4174

     55  H    Isotropic =    25.7563   Anisotropy =    13.5812

     56  H    Isotropic =    25.7341   Anisotropy =     6.5278

     57  H    Isotropic =    26.6314   Anisotropy =     7.9231

     58  H    Isotropic =    32.0177   Anisotropy =    15.1348

     59  H    Isotropic =    32.3639   Anisotropy =    13.3831

     60  H    Isotropic =    33.4002   Anisotropy =     8.9486

     61  H    Isotropic =    32.5159   Anisotropy =    14.6473

     62  H    Isotropic =    32.9387   Anisotropy =    13.9130

     63  H    Isotropic =    32.0056   Anisotropy =    17.6551

     64  H    Isotropic =    31.8481   Anisotropy =    14.4336

     65  H    Isotropic =    32.6564   Anisotropy =    16.8353

     66  H    Isotropic =    32.5769   Anisotropy =    12.2569

     67  H    Isotropic =    32.8097   Anisotropy =    13.4075

     68  H    Isotropic =    32.5464   Anisotropy =    14.5575

     69  H    Isotropic =    32.3600   Anisotropy =    11.1106

     70  H    Isotropic =    32.9396   Anisotropy =    12.1197

     71  H    Isotropic =    31.8399   Anisotropy =    15.6419

     72  H    Isotropic =    31.9445   Anisotropy =     9.9351

     73  H    Isotropic =    31.4392   Anisotropy =     9.7742

     74  H    Isotropic =    32.2885   Anisotropy =    14.7424

     75  H    Isotropic =    31.2838   Anisotropy =    12.6391

     76  H    Isotropic =    30.5613   Anisotropy =    12.2291

     77  H    Isotropic =    30.6585   Anisotropy =     7.8942

     78  H    Isotropic =    30.5921   Anisotropy =    11.7674

     79  H    Isotropic =    32.0068   Anisotropy =    11.1354

     80  H    Isotropic =    30.8022   Anisotropy =    14.8384

     81  H    Isotropic =    30.9619   Anisotropy =    10.9961

     82  H    Isotropic =    29.8551   Anisotropy =    12.5785

     83  H    Isotropic =    29.9816   Anisotropy =     8.1327

     84  H    Isotropic =    25.9439   Anisotropy =    11.8368

     85  H    Isotropic =    25.7902   Anisotropy =     6.5680

     86  H    Isotropic =    26.1057   Anisotropy =     7.7745

     87  H    Isotropic =    31.6044   Anisotropy =     5.6958

     88  H    Isotropic =    32.5070   Anisotropy =     9.5330

     89  H    Isotropic =    31.4889   Anisotropy =    15.0063

     90  H    Isotropic =    32.1233   Anisotropy =    16.3883

     91  H    Isotropic =    32.8504   Anisotropy =    11.7385

     92  H    Isotropic =    30.8052   Anisotropy =    12.9162

     93  H    Isotropic =    31.8092   Anisotropy =     9.9813

     94  H    Isotropic =    31.0852   Anisotropy =    12.5247

     95  H    Isotropic =    32.2239   Anisotropy =    17.3656

     96  H    Isotropic =    32.0329   Anisotropy =    15.6387

     97  H    Isotropic =    32.5513   Anisotropy =    12.5331

     98  H    Isotropic =    33.1970   Anisotropy =    11.5753

     99  H    Isotropic =    31.2852   Anisotropy =    10.2550

    100  H    Isotropic =    31.0071   Anisotropy =    16.5351

    101  H    Isotropic =    31.2967   Anisotropy =    15.8875

    102  H    Isotropic =    30.1642   Anisotropy =    10.1876

    103  H    Isotropic =    31.5567   Anisotropy =    15.0517

    104  H    Isotropic =    31.0668   Anisotropy =    13.8832

    105  H    Isotropic =    30.6126   Anisotropy =     7.1808

    106  H    Isotropic =    30.6678   Anisotropy =    11.0411

    107  H    Isotropic =    30.6606   Anisotropy =    12.8441

    108  H    Isotropic =    31.7315   Anisotropy =     8.6845

    109  H    Isotropic =    31.8393   Anisotropy =    11.9319

    110  H    Isotropic =    31.2069   Anisotropy =    14.5510

 The electronic state is 1-A.
 Alpha  occ. eigenvalues --  -20.30685 -20.28865 -20.24662 -20.22926 -19.92411
 Alpha  occ. eigenvalues --  -15.48424 -15.33663 -15.32584 -15.30892 -11.16581
 Alpha  occ. eigenvalues --  -11.15292 -11.10595 -11.09816 -11.09517 -11.09395
 Alpha  occ. eigenvalues --  -11.09093 -11.08876 -11.08799 -11.07961 -11.07289
 Alpha  occ. eigenvalues --  -11.07180 -11.06499 -11.06488 -11.06340 -11.06292
 Alpha  occ. eigenvalues --  -11.06213 -11.05920 -11.05840 -11.05718 -11.05480
 Alpha  occ. eigenvalues --  -11.05303 -11.04985 -11.04895 -11.04792 -11.04761
 Alpha  occ. eigenvalues --  -11.04488 -11.04296 -11.04122 -11.03991 -11.03942
 Alpha  occ. eigenvalues --  -11.03838 -11.03795 -11.03297 -11.03182 -11.02936
 Alpha  occ. eigenvalues --  -11.02327 -11.02309 -11.02277 -11.02087 -11.01995
 Alpha  occ. eigenvalues --  -11.01944 -11.01928 -11.01640 -11.01467  -1.37908
 Alpha  occ. eigenvalues --   -1.36210  -1.29768  -1.27711  -1.26099  -1.21552
 Alpha  occ. eigenvalues --   -1.20229  -1.19045  -1.10457  -1.09798  -1.09064
 Alpha  occ. eigenvalues --   -1.07622  -1.05981  -1.05061  -1.02928  -1.00944
 Alpha  occ. eigenvalues --   -0.99226  -0.98719  -0.98509  -0.97637  -0.96920
 Alpha  occ. eigenvalues --   -0.96459  -0.95318  -0.94650  -0.94059  -0.92571
 Alpha  occ. eigenvalues --   -0.91728  -0.91566  -0.89571  -0.89123  -0.87948
 Alpha  occ. eigenvalues --   -0.86485  -0.84597  -0.82813  -0.81999  -0.80873
 Alpha  occ. eigenvalues --   -0.80564  -0.79789  -0.78382  -0.77798  -0.77487
 Alpha  occ. eigenvalues --   -0.77256  -0.74514  -0.74149  -0.73077  -0.72349
 Alpha  occ. eigenvalues --   -0.71423  -0.70385  -0.69510  -0.68424  -0.66036
 Alpha  occ. eigenvalues --   -0.65315  -0.64907  -0.64474  -0.63690  -0.63212
 Alpha  occ. eigenvalues --   -0.62476  -0.62297  -0.61495  -0.61349  -0.61209
 Alpha  occ. eigenvalues --   -0.60701  -0.59888  -0.59140  -0.58873  -0.58602
 Alpha  occ. eigenvalues --   -0.58266  -0.58162  -0.57965  -0.57646  -0.57353
 Alpha  occ. eigenvalues --   -0.56835  -0.56771  -0.56060  -0.55782  -0.55639
 Alpha  occ. eigenvalues --   -0.55126  -0.54898  -0.54685  -0.54580  -0.54458
 Alpha  occ. eigenvalues --   -0.53999  -0.53595  -0.53346  -0.52514  -0.51987
 Alpha  occ. eigenvalues --   -0.51796  -0.51426  -0.51083  -0.50978  -0.50276
 Alpha  occ. eigenvalues --   -0.49989  -0.49698  -0.49101  -0.48859  -0.48654
 Alpha  occ. eigenvalues --   -0.48219  -0.47988  -0.47691  -0.47492  -0.46795
 Alpha  occ. eigenvalues --   -0.46503  -0.46422  -0.45961  -0.45757  -0.45221
 Alpha  occ. eigenvalues --   -0.45033  -0.44854  -0.44593  -0.44263  -0.43928
 Alpha  occ. eigenvalues --   -0.43549  -0.43468  -0.43201  -0.42707  -0.42489
 Alpha  occ. eigenvalues --   -0.42132  -0.42033  -0.41449  -0.40803  -0.40680
 Alpha  occ. eigenvalues --   -0.40467  -0.40151  -0.38802  -0.38567  -0.38105
 Alpha  occ. eigenvalues --   -0.37537  -0.37379  -0.36590  -0.35775  -0.34272
 Alpha  occ. eigenvalues --   -0.33375  -0.32248  -0.31867  -0.31512  -0.30990
 Alpha  occ. eigenvalues --   -0.27454  -0.27201  -0.26434  -0.22322  -0.20880
 Alpha  occ. eigenvalues --   -0.16370  -0.15883
 Alpha virt. eigenvalues --    0.26181   0.26675   0.27283   0.28952   0.30395
 Alpha virt. eigenvalues --    0.32391   0.45479   0.47428   0.48131   0.49010
 Alpha virt. eigenvalues --    0.49530   0.49926   0.50406   0.50981   0.52163

 Mulliken charges:
               1
     1  C   -0.074292
     2  C    0.000165
     3  C   -0.061199
     4  C   -0.089393
     5  C    0.089692
     6  C   -0.012172
     7  N   -0.285715
     8  C    0.017748
     9  C    0.127868
    10  C    0.039930
    11  C   -0.115127
    12  C   -0.105621
    13  C    0.027763
    14  N   -0.291762
    15  C   -0.015620
    16  C   -0.108495
    17  C   -0.102129
    18  C   -0.105896
    19  C   -0.020133
    20  C   -0.110450
    21  C   -0.066444
    22  C    0.319592
    23  O   -0.276978
    24  O   -0.255408
    25  C   -0.055768
    26  C   -0.079434
    27  C   -0.109847
    28  C    0.008712
    29  C   -0.080965
    30  C   -0.065258
    31  C   -0.077279
    32  C    0.082293
    33  C   -0.012560
    34  N   -0.281962
    35  C    0.006735
    36  C    0.124327
    37  C    0.041529
    38  C   -0.100640
    39  C   -0.107514
    40  C    0.039747
    41  N   -0.081068
    42  C   -0.003681
    43  C   -0.097605
    44  C   -0.099289
    45  C   -0.105738
    46  C   -0.005880
    47  C   -0.096638
    48  C   -0.058708
    49  C    0.330575
    50  O   -0.284110
    51  O   -0.257239
    52  C   -0.054850
    53  C   -0.082373
    54  O   -0.463137
    55  H    0.061710
    56  H    0.056340
    57  H    0.058799
    58  H    0.053851
    59  H    0.051352
    60  H    0.054904
    61  H    0.049340
    62  H    0.051288
    63  H    0.050091
    64  H    0.061401
    65  H    0.055097
    66  H    0.051362
    67  H    0.050545
    68  H    0.053025
    69  H    0.062901
    70  H    0.064489
    71  H    0.056679
    72  H    0.052023
    73  H    0.067769
    74  H    0.052002
    75  H    0.065345
    76  H    0.077439
    77  H    0.074704
    78  H    0.072475
    79  H    0.055816
    80  H    0.071959
    81  H    0.076781
    82  H    0.059126
    83  H    0.059009
    84  H    0.053266
    85  H    0.057392
    86  H    0.065389
    87  H    0.054522
    88  H    0.058205
    89  H    0.054235
    90  H    0.053304
    91  H    0.045844
    92  H    0.084087
    93  H    0.057421
    94  H    0.080023
    95  H    0.058453
    96  H    0.058669
    97  H    0.047316
    98  H    0.063253
    99  H    0.098245
   100  H    0.087468
   101  H    0.060723
   102  H    0.096806
   103  H    0.047409
   104  H    0.069364
   105  H    0.079371
   106  H    0.067985
   107  H    0.074274
   108  H    0.065872
   109  H    0.069514
   110  H    0.065669
 Sum of Mulliken charges =  -0.00000

 Dipole moment (field-independent basis, Debye):
    X=              2.0871    Y=              0.1301    Z=             -0.7679  Tot=              2.2276
 Quadrupole moment (field-independent basis, Debye-Ang):
   XX=           -295.8519   YY=           -303.0738   ZZ=           -293.7347
   XY=              1.1918   XZ=             15.8040   YZ=              2.8636

 Summary of Natural Population Analysis:

                                       Natural Population
                Natural  -----------------------------------------------
    Atom  No    Charge         Core      Valence    Rydberg      Total
 -----------------------------------------------------------------------
      C    1   -0.05595      1.99993     4.05603    0.00000     6.05595
      C    2    0.01370      1.99990     3.98640    0.00000     5.98630
      C    3   -0.03277      1.99994     4.03282    0.00000     6.03277
      C    4   -0.08621      1.99993     4.08628    0.00000     6.08621
      C    5    0.11302      1.99985     3.88713    0.00000     5.88698
      C    6   -0.02371      1.99990     4.02380    0.00000     6.02371
      N    7   -0.27410      1.99998     5.27412    0.00000     7.27410
      C    8    0.01938      1.99996     3.98066    0.00000     5.98062
      C    9    0.17152      1.99996     3.82852    0.00000     5.82848
      C   10    0.07381      1.99993     3.92625    0.00000     5.92619
      C   11   -0.08534      1.99994     4.08540    0.00000     6.08534
      C   12   -0.07407      1.99996     4.07412    0.00000     6.07407
      C   13    0.05005      1.99998     3.94997    0.00000     5.94995
      N   14   -0.27976      1.99999     5.27976    0.00000     7.27976
      C   15    0.03812      1.99993     3.96194    0.00000     5.96188
      C   16   -0.07508      1.99997     4.07512    0.00000     6.07508
      C   17   -0.06855      1.99996     4.06860    0.00000     6.06855
      C   18   -0.07622      1.99995     4.07627    0.00000     6.07622
      C   19    0.03342      1.99994     3.96663    0.00000     5.96658
      C   20   -0.07352      1.99992     4.07359    0.00000     6.07352
      C   21   -0.08441      1.99994     4.08447    0.00000     6.08441
      C   22    0.40282      1.99991     3.59727    0.00000     5.59718
      O   23   -0.31113      1.99999     6.31115    0.00000     8.31113
      O   24   -0.26696      1.99999     6.26697    0.00000     8.26696
      C   25    0.03466      1.99984     3.96550    0.00000     5.96534
      C   26   -0.01688      1.99992     4.01696    0.00000     6.01688
      C   27   -0.08717      1.99995     4.08721    0.00000     6.08717
      C   28    0.02853      1.99990     3.97157    0.00000     5.97147
      C   29   -0.06743      1.99992     4.06751    0.00000     6.06743
      C   30   -0.04132      1.99994     4.04138    0.00000     6.04132
      C   31   -0.06774      1.99993     4.06781    0.00000     6.06774
      C   32    0.10129      1.99985     3.89886    0.00000     5.89871
      C   33   -0.01746      1.99990     4.01756    0.00000     6.01746
      N   34   -0.27327      1.99998     5.27329    0.00000     7.27327
      C   35    0.00004      1.99996     4.00000    0.00000     5.99996
      C   36    0.16906      1.99996     3.83098    0.00000     5.83094
      C   37    0.07226      1.99991     3.92783    0.00000     5.92774
      C   38   -0.06586      1.99991     4.06594    0.00000     6.06586
      C   39   -0.07892      1.99996     4.07896    0.00000     6.07892
      C   40    0.05783      1.99998     3.94219    0.00000     5.94217
      N   41    0.03343      1.99999     4.96658    0.00000     6.96657
      C   42    0.04977      1.99992     3.95032    0.00000     5.95023
      C   43   -0.06405      1.99995     4.06410    0.00000     6.06405
      C   44   -0.06254      1.99995     4.06259    0.00000     6.06254
      C   45   -0.07391      1.99993     4.07398    0.00000     6.07391
      C   46    0.04492      1.99993     3.95515    0.00000     5.95508
      C   47   -0.05850      1.99991     4.05859    0.00000     6.05850
      C   48   -0.07253      1.99993     4.07260    0.00000     6.07253
      C   49    0.41481      1.99990     3.58529    0.00000     5.58519
      O   50   -0.32029      1.99998     6.32031    0.00000     8.32029
      O   51   -0.27021      1.99999     6.27022    0.00000     8.27021
      C   52    0.03547      1.99984     3.96469    0.00000     5.96453
      C   53   -0.02056      1.99992     4.02063    0.00000     6.02056
      O   54   -0.51570      2.00000     6.51570    0.00000     8.51570
      H   55    0.03586      0.00000     0.96414    0.00000     0.96414
      H   56    0.02905      0.00000     0.97095    0.00000     0.97095
      H   57    0.03452      0.00000     0.96548    0.00000     0.96548
      H   58    0.02271      0.00000     0.97729    0.00000     0.97729
      H   59    0.02916      0.00000     0.97084    0.00000     0.97084
      H   60    0.03193      0.00000     0.96807    0.00000     0.96807
      H   61    0.02833      0.00000     0.97167    0.00000     0.97167
      H   62    0.03023      0.00000     0.96977    0.00000     0.96977
      H   63    0.02328      0.00000     0.97672    0.00000     0.97672
      H   64    0.03557      0.00000     0.96443    0.00000     0.96443
      H   65    0.03519      0.00000     0.96481    0.00000     0.96481
      H   66    0.03075      0.00000     0.96925    0.00000     0.96925
      H   67    0.02975      0.00000     0.97025    0.00000     0.97025
      H   68    0.03206      0.00000     0.96794    0.00000     0.96794
      H   69    0.04170      0.00000     0.95830    0.00000     0.95830
      H   70    0.04186      0.00000     0.95814    0.00000     0.95814
      H   71    0.03042      0.00000     0.96958    0.00000     0.96958
      H   72    0.02296      0.00000     0.97704    0.00000     0.97704
      H   73    0.04246      0.00000     0.95754    0.00000     0.95754
      H   74    0.02974      0.00000     0.97026    0.00000     0.97026
      H   75    0.04247      0.00000     0.95753    0.00000     0.95753
      H   76    0.04634      0.00000     0.95366    0.00000     0.95366
      H   77    0.04322      0.00000     0.95678    0.00000     0.95678
      H   78    0.04091      0.00000     0.95909    0.00000     0.95909
      H   79    0.03040      0.00000     0.96960    0.00000     0.96960
      H   80    0.04760      0.00000     0.95240    0.00000     0.95240
      H   81    0.05233      0.00000     0.94767    0.00000     0.94767
      H   82    0.03988      0.00000     0.96012    0.00000     0.96012
      H   83    0.04030      0.00000     0.95970    0.00000     0.95970
      H   84    0.02868      0.00000     0.97132    0.00000     0.97132
      H   85    0.03021      0.00000     0.96979    0.00000     0.96979
      H   86    0.03987      0.00000     0.96013    0.00000     0.96013
      H   87    0.02216      0.00000     0.97784    0.00000     0.97784
      H   88    0.03312      0.00000     0.96688    0.00000     0.96688
      H   89    0.02995      0.00000     0.97005    0.00000     0.97005
      H   90    0.03284      0.00000     0.96716    0.00000     0.96716
      H   91    0.02528      0.00000     0.97472    0.00000     0.97472
      H   92    0.05254      0.00000     0.94746    0.00000     0.94746
      H   93    0.02671      0.00000     0.97329    0.00000     0.97329
      H   94    0.05547      0.00000     0.94453    0.00000     0.94453
      H   95    0.03673      0.00000     0.96327    0.00000     0.96327
      H   96    0.03638      0.00000     0.96362    0.00000     0.96362
      H   97    0.02521      0.00000     0.97479    0.00000     0.97479
      H   98    0.04094      0.00000     0.95906    0.00000     0.95906
      H   99    0.07007      0.00000     0.92993    0.00000     0.92993
      H  100    0.05625      0.00000     0.94375    0.00000     0.94375
      H  101    0.03007      0.00000     0.96993    0.00000     0.96993
      H  102    0.06789      0.00000     0.93211    0.00000     0.93211
      H  103    0.02358      0.00000     0.97642    0.00000     0.97642
      H  104    0.04497      0.00000     0.95503    0.00000     0.95503
      H  105    0.04754      0.00000     0.95246    0.00000     0.95246
      H  106    0.03671      0.00000     0.96329    0.00000     0.96329
      H  107    0.04350      0.00000     0.95650    0.00000     0.95650
      H  108    0.03931      0.00000     0.96069    0.00000     0.96069
      H  109    0.04527      0.00000     0.95473    0.00000     0.95473
      H  110    0.04199      0.00000     0.95801    0.00000     0.95801
 =======================================================================
   * Total *   -0.00000    107.99661   286.00339    0.00000   394.00000

 Normal termination of Gaussian 16 at Thu May 30 09:37:34 2024.
