 Gaussian 16, Revision B.01,
 Gaussian 16:  ES64L-G16RevB.01 20-Dec-2017

 ----------------------------------------------
 # nmr=giao hf/sto-3g pop=nbo geom=connectivity
 ----------------------------------------------

 -----------------
 Pleiokomenine_C_2
 -----------------
 Symbolic Z-matrix:
 Charge =  0 Multiplicity = 1

                         Standard orientation:
 ---------------------------------------------------------------------
 Center     Atomic      Atomic             Coordinates (Angstroms)
 Number     Number       Type             X           Y           Z
 ---------------------------------------------------------------------
      1          6           0       -1.871696   -2.163018   -0.822382
      2          6           0       -1.249112   -2.632584   -1.987741
      3          6           0       -1.609569   -2.082916   -3.236117
      4          6           0       -2.575595   -1.073101   -3.334764
      5          6           0       -3.187724   -0.615443   -2.181041
      6          6           0       -2.815618   -1.153194   -0.936417
      7          7           0       -4.196616    0.377006   -2.059638
      8          6           0       -3.532548   -0.393884    0.152513
      9          6           0       -4.758551    0.098182   -0.712051
     10          6           0       -4.053750   -1.121036    1.400017
     11          6           0       -5.815962   -1.085619   -0.820903
     12          6           0       -6.358423   -1.475713    0.560144
     13          6           0       -5.552139   -0.733655    1.644131
     14          7           0       -3.117277   -0.752331    2.462625
     15          6           0       -3.573235   -1.034096    3.816035
     16          6           0       -5.016221   -0.625024    4.110728
     17          6           0       -5.977573   -1.169088    3.053868
     18          6           0       -2.514411    0.636722    0.699901
     19          6           0       -2.651307    0.602678    2.216359
     20          6           0       -5.855810    0.787313    1.420605
     21          6           0       -5.536186    1.237895   -0.030827
     22          6           0       -4.912757    2.621411   -0.081127
     23          8           0       -4.398633    3.197790    0.869015
     24          8           0       -5.068711    3.174858   -1.316947
     25          6           0       -4.491779    4.473354   -1.453007
     26          6           0       -5.064431    0.573177   -3.211263
     27          6           0       -0.164158   -3.686990   -1.899997
     28          6           0        1.092553   -3.271674   -1.156271
     29          6           0        1.528904   -1.938642   -1.126987
     30          6           0        1.858715   -4.261432   -0.498068
     31          6           0        3.033324   -3.942739    0.197893
     32          6           0        3.449766   -2.626611    0.228407
     33          6           0        2.678220   -1.634087   -0.415739
     34          7           0        4.619933   -2.080403    0.820334
     35          6           0        3.285314   -0.291667   -0.073654
     36          6           0        4.760437   -0.802423    0.084696
     37          6           0        3.309719    0.874879   -1.044321
     38          6           0        5.363415   -1.152181   -1.371517
     39          6           0        5.197110    0.011030   -2.354047
     40          6           0        4.698228    1.245186   -1.585299
     41          7           0        2.691203    2.048299   -0.300575
     42          6           0        2.313481    3.079996   -1.310694
     43          6           0        3.601643    3.580828   -1.995657
     44          6           0        4.523876    2.459670   -2.529979
     45          6           0        2.392573    0.220936    1.095239
     46          6           0        1.607233    1.385983    0.467339
     47          6           0        5.748344    1.458523   -0.441487
     48          6           0        5.735709    0.279571    0.602314
     49          6           0        5.569676    0.719685    2.049439
     50          8           0        5.060045    0.054416    2.941885
     51          8           0        6.222967    1.899086    2.268919
     52          6           0        6.060299    2.414419    3.588868
     53          6           0        5.749513   -2.953603    1.066461
     54          8           0        3.501220    2.653113    0.629179
     55          1           0       -1.587375   -2.542462    0.156218
     56          1           0       -1.125788   -2.434164   -4.145369
     57          1           0       -2.826027   -0.664009   -4.306724
     58          1           0       -3.986833   -2.210230    1.273146
     59          1           0       -5.383380   -1.974367   -1.297034
     60          1           0       -6.657549   -0.794025   -1.462368
     61          1           0       -7.424223   -1.223604    0.628793
     62          1           0       -6.291334   -2.563187    0.688120
     63          1           0       -3.487481   -2.116850    3.975183
     64          1           0       -2.899155   -0.577727    4.551051
     65          1           0       -5.307059   -1.011799    5.094600
     66          1           0       -5.092347    0.465938    4.173128
     67          1           0       -5.989013   -2.264986    3.117776
     68          1           0       -6.997746   -0.832767    3.273833
     69          1           0       -1.483304    0.336144    0.464757
     70          1           0       -2.616921    1.638321    0.284028
     71          1           0       -1.683769    0.784947    2.696634
     72          1           0       -3.341545    1.368176    2.574059
     73          1           0       -5.351506    1.406372    2.162885
     74          1           0       -6.925453    0.967590    1.600371
     75          1           0       -6.506626    1.363718   -0.535362
     76          1           0       -4.633430    4.799935   -2.486896
     77          1           0       -4.995032    5.185937   -0.792161
     78          1           0       -3.417622    4.441231   -1.244981
     79          1           0       -5.486171   -0.370876   -3.574413
     80          1           0       -4.512116    1.047960   -4.029178
     81          1           0       -5.897433    1.237327   -2.961311
     82          1           0       -0.605650   -4.567354   -1.414384
     83          1           0        0.133715   -4.004687   -2.907289
     84          1           0        0.956828   -1.152770   -1.608974
     85          1           0        1.534251   -5.300350   -0.518947
     86          1           0        3.594132   -4.723675    0.697742
     87          1           0        2.622499    0.667109   -1.877984
     88          1           0        4.920722   -2.050717   -1.818467
     89          1           0        6.431029   -1.393607   -1.273966
     90          1           0        6.149386    0.213861   -2.859176
     91          1           0        4.484976   -0.271345   -3.140036
     92          1           0        1.804266    3.885431   -0.771184
     93          1           0        1.619298    2.617305   -2.019731
     94          1           0        3.334441    4.253798   -2.818551
     95          1           0        4.176761    4.185139   -1.282999
     96          1           0        4.085246    2.109913   -3.474552
     97          1           0        5.501857    2.883665   -2.788024
     98          1           0        1.697214   -0.515635    1.514469
     99          1           0        2.983008    0.597391    1.929790
    100          1           0        0.839865    1.061535   -0.242286
    101          1           0        1.200440    2.090997    1.197687
    102          1           0        5.649193    2.442541    0.020495
    103          1           0        6.749964    1.490171   -0.895556
    104          1           0        6.750155   -0.148156    0.603464
    105          1           0        4.999350    2.522481    3.836308
    106          1           0        6.524329    3.403873    3.625668
    107          1           0        6.564668    1.768165    4.313768
    108          1           0        6.589659   -2.385313    1.477512
    109          1           0        5.492567   -3.718557    1.807030
    110          1           0        6.089251   -3.451958    0.152164
 ---------------------------------------------------------------------

 SCF Done:  E(RHF) =  -2300.20198156     A.U. after   16 cycles

      1  C    Isotropic =   123.4208   Anisotropy =   156.0460

      2  C    Isotropic =   118.4558   Anisotropy =   163.7275

      3  C    Isotropic =   118.6454   Anisotropy =   152.4087

      4  C    Isotropic =   133.8062   Anisotropy =   143.9957

      5  C    Isotropic =   108.8704   Anisotropy =   128.8527

      6  C    Isotropic =   116.9588   Anisotropy =   143.1060

      7  N    Isotropic =   273.9692   Anisotropy =    82.2276

      8  C    Isotropic =   195.9450   Anisotropy =    11.5996

      9  C    Isotropic =   181.0261   Anisotropy =    44.8044

     10  C    Isotropic =   190.5676   Anisotropy =    28.7858

     11  C    Isotropic =   213.7370   Anisotropy =    20.0761

     12  C    Isotropic =   212.9051   Anisotropy =    20.8921

     13  C    Isotropic =   213.7048   Anisotropy =     9.0899

     14  N    Isotropic =   303.3599   Anisotropy =    53.5808

     15  C    Isotropic =   205.4178   Anisotropy =    35.3256

     16  C    Isotropic =   224.2924   Anisotropy =     8.4383

     17  C    Isotropic =   215.3576   Anisotropy =    20.0246

     18  C    Isotropic =   210.5353   Anisotropy =    36.2970

     19  C    Isotropic =   200.0627   Anisotropy =    41.9231

     20  C    Isotropic =   212.2471   Anisotropy =    20.9182

     21  C    Isotropic =   209.1240   Anisotropy =     9.6640

     22  C    Isotropic =    96.5357   Anisotropy =    98.6534

     23  O    Isotropic =  -135.0940   Anisotropy =   889.8831

     24  O    Isotropic =   283.7451   Anisotropy =   140.0462

     25  C    Isotropic =   197.3872   Anisotropy =    56.8590

     26  C    Isotropic =   209.8628   Anisotropy =    41.6335

     27  C    Isotropic =   206.5150   Anisotropy =    21.9851

     28  C    Isotropic =   118.5608   Anisotropy =   159.2170

     29  C    Isotropic =   128.3155   Anisotropy =   151.0163

     30  C    Isotropic =   118.4737   Anisotropy =   153.2759

     31  C    Isotropic =   133.9072   Anisotropy =   143.3771

     32  C    Isotropic =   108.5491   Anisotropy =   129.7929

     33  C    Isotropic =   117.8225   Anisotropy =   141.9767

     34  N    Isotropic =   273.4485   Anisotropy =    85.5242

     35  C    Isotropic =   200.8631   Anisotropy =    14.0655

     36  C    Isotropic =   179.3322   Anisotropy =    39.6707

     37  C    Isotropic =   184.0227   Anisotropy =    42.6962

     38  C    Isotropic =   211.0906   Anisotropy =    23.6515

     39  C    Isotropic =   212.8648   Anisotropy =    19.7992

     40  C    Isotropic =   211.6309   Anisotropy =    11.3485

     41  N    Isotropic =   235.4010   Anisotropy =    25.2275

     42  C    Isotropic =   194.0211   Anisotropy =    49.3503

     43  C    Isotropic =   219.3548   Anisotropy =    11.3196

     44  C    Isotropic =   214.8796   Anisotropy =    22.2034

     45  C    Isotropic =   207.2997   Anisotropy =    35.1593

     46  C    Isotropic =   191.2121   Anisotropy =    54.5023

     47  C    Isotropic =   211.7699   Anisotropy =    25.2904

     48  C    Isotropic =   207.2629   Anisotropy =    16.5180

     49  C    Isotropic =    98.2945   Anisotropy =    96.6415

     50  O    Isotropic =  -133.0760   Anisotropy =   880.1529

     51  O    Isotropic =   285.9243   Anisotropy =   142.6655

     52  C    Isotropic =   197.4968   Anisotropy =    56.5658

     53  C    Isotropic =   211.0949   Anisotropy =    42.2533

     54  O    Isotropic =    74.8014   Anisotropy =   406.4053

     55  H    Isotropic =    26.0685   Anisotropy =    15.1757

     56  H    Isotropic =    25.7375   Anisotropy =     5.6776

     57  H    Isotropic =    26.5376   Anisotropy =     7.4683

     58  H    Isotropic =    31.6376   Anisotropy =     8.7091

     59  H    Isotropic =    32.9292   Anisotropy =     8.8082

     60  H    Isotropic =    32.1808   Anisotropy =    13.6364

     61  H    Isotropic =    32.3803   Anisotropy =    15.4684

     62  H    Isotropic =    32.6152   Anisotropy =    13.8288

     63  H    Isotropic =    31.9452   Anisotropy =    14.3527

     64  H    Isotropic =    31.9215   Anisotropy =    14.4780

     65  H    Isotropic =    32.7001   Anisotropy =    18.1932

     66  H    Isotropic =    32.6090   Anisotropy =    10.4177

     67  H    Isotropic =    32.7035   Anisotropy =    13.5208

     68  H    Isotropic =    32.5284   Anisotropy =    15.0956

     69  H    Isotropic =    32.7963   Anisotropy =    18.4444

     70  H    Isotropic =    33.0762   Anisotropy =     8.8318

     71  H    Isotropic =    32.0759   Anisotropy =    15.1847

     72  H    Isotropic =    32.0231   Anisotropy =     8.5262

     73  H    Isotropic =    31.4343   Anisotropy =     9.0187

     74  H    Isotropic =    32.2518   Anisotropy =    15.1011

     75  H    Isotropic =    31.2021   Anisotropy =    12.5424

     76  H    Isotropic =    30.5548   Anisotropy =    11.7149

     77  H    Isotropic =    30.5738   Anisotropy =    11.6252

     78  H    Isotropic =    30.6719   Anisotropy =     8.1777

     79  H    Isotropic =    31.8678   Anisotropy =    12.1005

     80  H    Isotropic =    30.7307   Anisotropy =    13.8539

     81  H    Isotropic =    30.8734   Anisotropy =    10.7238

     82  H    Isotropic =    29.9125   Anisotropy =    10.9918

     83  H    Isotropic =    30.2321   Anisotropy =    11.2726

     84  H    Isotropic =    27.5207   Anisotropy =    17.1260

     85  H    Isotropic =    25.6283   Anisotropy =     6.5544

     86  H    Isotropic =    26.4153   Anisotropy =     7.2810

     87  H    Isotropic =    32.1505   Anisotropy =     7.6519

     88  H    Isotropic =    33.1456   Anisotropy =     8.4560

     89  H    Isotropic =    32.1385   Anisotropy =    13.7634

     90  H    Isotropic =    32.2685   Anisotropy =    15.9570

     91  H    Isotropic =    33.0267   Anisotropy =    11.6010

     92  H    Isotropic =    31.0733   Anisotropy =    13.0985

     93  H    Isotropic =    32.3545   Anisotropy =    11.1710

     94  H    Isotropic =    32.4124   Anisotropy =    17.1301

     95  H    Isotropic =    31.1441   Anisotropy =    13.0819

     96  H    Isotropic =    32.7742   Anisotropy =    12.1448

     97  H    Isotropic =    32.1612   Anisotropy =    15.5499

     98  H    Isotropic =    32.8105   Anisotropy =    11.0813

     99  H    Isotropic =    31.4168   Anisotropy =    11.3286

    100  H    Isotropic =    32.2852   Anisotropy =    17.4819

    101  H    Isotropic =    31.2569   Anisotropy =    13.5864

    102  H    Isotropic =    29.8984   Anisotropy =    10.7550

    103  H    Isotropic =    31.8175   Anisotropy =    14.9549

    104  H    Isotropic =    31.4124   Anisotropy =    13.1598

    105  H    Isotropic =    30.5908   Anisotropy =     7.1942

    106  H    Isotropic =    30.6596   Anisotropy =    12.5225

    107  H    Isotropic =    30.6040   Anisotropy =    11.4999

    108  H    Isotropic =    31.4810   Anisotropy =    11.9730

    109  H    Isotropic =    30.7403   Anisotropy =    14.6685

    110  H    Isotropic =    31.9354   Anisotropy =    12.2271

 The electronic state is 1-A.
 Alpha  occ. eigenvalues --  -20.30733 -20.28369 -20.24755 -20.22376 -19.91974
 Alpha  occ. eigenvalues --  -15.48010 -15.33725 -15.33208 -15.30432 -11.16614
 Alpha  occ. eigenvalues --  -11.14600 -11.10701 -11.09545 -11.09510 -11.09153
 Alpha  occ. eigenvalues --  -11.08936 -11.08599 -11.08539 -11.08109 -11.07841
 Alpha  occ. eigenvalues --  -11.07091 -11.06672 -11.06487 -11.06202 -11.06110
 Alpha  occ. eigenvalues --  -11.06090 -11.05799 -11.05766 -11.05604 -11.05508
 Alpha  occ. eigenvalues --  -11.05342 -11.05093 -11.04664 -11.04498 -11.04427
 Alpha  occ. eigenvalues --  -11.04383 -11.04126 -11.04035 -11.04011 -11.03977
 Alpha  occ. eigenvalues --  -11.03815 -11.03799 -11.03512 -11.03025 -11.02156
 Alpha  occ. eigenvalues --  -11.02100 -11.01915 -11.01907 -11.01892 -11.01675
 Alpha  occ. eigenvalues --  -11.01671 -11.01595 -11.01520 -11.01248  -1.37972
 Alpha  occ. eigenvalues --   -1.35609  -1.29385  -1.27778  -1.25347  -1.21548
 Alpha  occ. eigenvalues --   -1.20643  -1.18840  -1.10367  -1.09727  -1.08824
 Alpha  occ. eigenvalues --   -1.07511  -1.05637  -1.04886  -1.02647  -1.00836
 Alpha  occ. eigenvalues --   -0.99130  -0.98603  -0.98429  -0.97355  -0.96808
 Alpha  occ. eigenvalues --   -0.96399  -0.95017  -0.94513  -0.94008  -0.92272
 Alpha  occ. eigenvalues --   -0.91754  -0.91604  -0.89509  -0.89208  -0.87873
 Alpha  occ. eigenvalues --   -0.86443  -0.84763  -0.82699  -0.81977  -0.81050
 Alpha  occ. eigenvalues --   -0.80249  -0.79651  -0.78108  -0.77738  -0.77382
 Alpha  occ. eigenvalues --   -0.77082  -0.74373  -0.74009  -0.72652  -0.72074
 Alpha  occ. eigenvalues --   -0.71332  -0.70205  -0.69445  -0.68187  -0.65996
 Alpha  occ. eigenvalues --   -0.65037  -0.64893  -0.64461  -0.63590  -0.62761
 Alpha  occ. eigenvalues --   -0.62352  -0.62329  -0.61378  -0.61250  -0.61127
 Alpha  occ. eigenvalues --   -0.60713  -0.59800  -0.58987  -0.58703  -0.58327
 Alpha  occ. eigenvalues --   -0.58238  -0.58015  -0.57767  -0.57637  -0.57203
 Alpha  occ. eigenvalues --   -0.56915  -0.56668  -0.56017  -0.55431  -0.55273
 Alpha  occ. eigenvalues --   -0.54925  -0.54712  -0.54461  -0.54344  -0.54145
 Alpha  occ. eigenvalues --   -0.54045  -0.53626  -0.53136  -0.52781  -0.52166
 Alpha  occ. eigenvalues --   -0.51847  -0.51388  -0.50950  -0.50705  -0.50127
 Alpha  occ. eigenvalues --   -0.49880  -0.49441  -0.49111  -0.48762  -0.48670
 Alpha  occ. eigenvalues --   -0.48286  -0.48002  -0.47892  -0.47434  -0.46956
 Alpha  occ. eigenvalues --   -0.46712  -0.45872  -0.45800  -0.45658  -0.44998
 Alpha  occ. eigenvalues --   -0.44891  -0.44703  -0.44409  -0.44347  -0.43708
 Alpha  occ. eigenvalues --   -0.43521  -0.43175  -0.42771  -0.42559  -0.42406
 Alpha  occ. eigenvalues --   -0.42192  -0.42114  -0.41414  -0.41006  -0.40620
 Alpha  occ. eigenvalues --   -0.40228  -0.39767  -0.38603  -0.38497  -0.38101
 Alpha  occ. eigenvalues --   -0.37463  -0.37189  -0.36489  -0.35426  -0.34351
 Alpha  occ. eigenvalues --   -0.33439  -0.33014  -0.32221  -0.31060  -0.30387
 Alpha  occ. eigenvalues --   -0.27344  -0.26850  -0.26060  -0.21183  -0.20243
 Alpha  occ. eigenvalues --   -0.15915  -0.15389
 Alpha virt. eigenvalues --    0.26757   0.27469   0.27772   0.28383   0.30349
 Alpha virt. eigenvalues --    0.32984   0.45840   0.48141   0.48552   0.48988
 Alpha virt. eigenvalues --    0.49486   0.50108   0.50122   0.51611   0.52145

 Mulliken charges:
               1
     1  C   -0.074300
     2  C   -0.001527
     3  C   -0.064540
     4  C   -0.091874
     5  C    0.088092
     6  C   -0.013427
     7  N   -0.286944
     8  C    0.018355
     9  C    0.127630
    10  C    0.041179
    11  C   -0.114909
    12  C   -0.105590
    13  C    0.028042
    14  N   -0.291115
    15  C   -0.014721
    16  C   -0.108250
    17  C   -0.102043
    18  C   -0.105246
    19  C   -0.019147
    20  C   -0.110502
    21  C   -0.066605
    22  C    0.319434
    23  O   -0.276207
    24  O   -0.255771
    25  C   -0.055881
    26  C   -0.079256
    27  C   -0.110278
    28  C    0.000445
    29  C   -0.079876
    30  C   -0.062225
    31  C   -0.090225
    32  C    0.095340
    33  C   -0.013918
    34  N   -0.281393
    35  C    0.015236
    36  C    0.135096
    37  C    0.039486
    38  C   -0.115930
    39  C   -0.105393
    40  C    0.040107
    41  N   -0.081315
    42  C   -0.003343
    43  C   -0.097140
    44  C   -0.099089
    45  C   -0.098103
    46  C   -0.005298
    47  C   -0.098551
    48  C   -0.058438
    49  C    0.327119
    50  O   -0.275256
    51  O   -0.255819
    52  C   -0.053988
    53  C   -0.076936
    54  O   -0.461352
    55  H    0.068736
    56  H    0.055359
    57  H    0.057680
    58  H    0.056886
    59  H    0.054410
    60  H    0.050683
    61  H    0.048311
    62  H    0.050762
    63  H    0.054362
    64  H    0.062808
    65  H    0.054073
    66  H    0.050489
    67  H    0.050295
    68  H    0.051326
    69  H    0.059959
    70  H    0.062442
    71  H    0.058111
    72  H    0.051880
    73  H    0.068133
    74  H    0.051495
    75  H    0.064980
    76  H    0.076943
    77  H    0.072990
    78  H    0.073755
    79  H    0.055787
    80  H    0.071116
    81  H    0.076879
    82  H    0.060933
    83  H    0.059060
    84  H    0.057488
    85  H    0.055279
    86  H    0.060033
    87  H    0.054492
    88  H    0.054421
    89  H    0.049036
    90  H    0.052793
    91  H    0.046843
    92  H    0.084511
    93  H    0.056151
    94  H    0.057422
    95  H    0.080737
    96  H    0.046642
    97  H    0.058121
    98  H    0.069391
    99  H    0.094986
   100  H    0.058061
   101  H    0.089807
   102  H    0.102121
   103  H    0.044410
   104  H    0.061636
   105  H    0.078333
   106  H    0.073993
   107  H    0.067193
   108  H    0.072127
   109  H    0.075288
   110  H    0.054201
 Sum of Mulliken charges =  -0.00000

 Dipole moment (field-independent basis, Debye):
    X=             -2.9210    Y=             -0.5463    Z=             -3.9592  Tot=              4.9503
 Quadrupole moment (field-independent basis, Debye-Ang):
   XX=           -279.4081   YY=           -299.6152   ZZ=           -297.8409
   XY=             -8.3861   XZ=             -8.9085   YZ=             -6.8362

 Summary of Natural Population Analysis:

                                       Natural Population
                Natural  -----------------------------------------------
    Atom  No    Charge         Core      Valence    Rydberg      Total
 -----------------------------------------------------------------------
      C    1   -0.05518      1.99993     4.05526    0.00000     6.05518
      C    2    0.01206      1.99991     3.98804    0.00000     5.98794
      C    3   -0.03626      1.99994     4.03631    0.00000     6.03626
      C    4   -0.08901      1.99993     4.08908    0.00000     6.08901
      C    5    0.11121      1.99985     3.88894    0.00000     5.88879
      C    6   -0.02419      1.99990     4.02429    0.00000     6.02419
      N    7   -0.27532      1.99998     5.27534    0.00000     7.27532
      C    8    0.02009      1.99996     3.97995    0.00000     5.97991
      C    9    0.17104      1.99996     3.82901    0.00000     5.82896
      C   10    0.07443      1.99993     3.92563    0.00000     5.92557
      C   11   -0.08507      1.99994     4.08514    0.00000     6.08507
      C   12   -0.07377      1.99996     4.07381    0.00000     6.07377
      C   13    0.05040      1.99998     3.94962    0.00000     5.94960
      N   14   -0.27955      1.99999     5.27956    0.00000     7.27955
      C   15    0.03878      1.99994     3.96129    0.00000     5.96122
      C   16   -0.07462      1.99997     4.07465    0.00000     6.07462
      C   17   -0.06827      1.99996     4.06831    0.00000     6.06827
      C   18   -0.07496      1.99995     4.07502    0.00000     6.07496
      C   19    0.03395      1.99994     3.96611    0.00000     5.96605
      C   20   -0.07375      1.99992     4.07383    0.00000     6.07375
      C   21   -0.08457      1.99994     4.08462    0.00000     6.08457
      C   22    0.40262      1.99991     3.59748    0.00000     5.59738
      O   23   -0.31023      1.99999     6.31024    0.00000     8.31023
      O   24   -0.26738      1.99999     6.26739    0.00000     8.26738
      C   25    0.03453      1.99984     3.96563    0.00000     5.96547
      C   26   -0.01655      1.99992     4.01662    0.00000     6.01655
      C   27   -0.08720      1.99995     4.08725    0.00000     6.08720
      C   28    0.01553      1.99990     3.98457    0.00000     5.98447
      C   29   -0.06429      1.99992     4.06437    0.00000     6.06429
      C   30   -0.03392      1.99994     4.03398    0.00000     6.03392
      C   31   -0.08868      1.99993     4.08875    0.00000     6.08868
      C   32    0.11922      1.99985     3.88092    0.00000     5.88078
      C   33   -0.02245      1.99990     4.02255    0.00000     6.02245
      N   34   -0.27142      1.99998     5.27144    0.00000     7.27142
      C   35    0.01116      1.99996     3.98888    0.00000     5.98884
      C   36    0.17893      1.99996     3.82112    0.00000     5.82107
      C   37    0.06866      1.99991     3.93143    0.00000     5.93134
      C   38   -0.08444      1.99993     4.08451    0.00000     6.08444
      C   39   -0.07449      1.99996     4.07453    0.00000     6.07449
      C   40    0.05891      1.99998     3.94111    0.00000     5.94109
      N   41    0.03304      1.99999     4.96698    0.00000     6.96696
      C   42    0.04985      1.99992     3.95023    0.00000     5.95015
      C   43   -0.06328      1.99995     4.06333    0.00000     6.06328
      C   44   -0.06233      1.99994     4.06238    0.00000     6.06233
      C   45   -0.06712      1.99993     4.06719    0.00000     6.06712
      C   46    0.04548      1.99993     3.95459    0.00000     5.95452
      C   47   -0.06051      1.99991     4.06060    0.00000     6.06051
      C   48   -0.07370      1.99994     4.07376    0.00000     6.07370
      C   49    0.40932      1.99991     3.59077    0.00000     5.59068
      O   50   -0.31066      1.99999     6.31067    0.00000     8.31066
      O   51   -0.26816      1.99999     6.26816    0.00000     8.26816
      C   52    0.03630      1.99984     3.96386    0.00000     5.96370
      C   53   -0.01505      1.99993     4.01512    0.00000     6.01505
      O   54   -0.51388      2.00000     6.51389    0.00000     8.51388
      H   55    0.04236      0.00000     0.95764    0.00000     0.95764
      H   56    0.02838      0.00000     0.97162    0.00000     0.97162
      H   57    0.03376      0.00000     0.96624    0.00000     0.96624
      H   58    0.02569      0.00000     0.97431    0.00000     0.97431
      H   59    0.03148      0.00000     0.96852    0.00000     0.96852
      H   60    0.02856      0.00000     0.97144    0.00000     0.97144
      H   61    0.02734      0.00000     0.97266    0.00000     0.97266
      H   62    0.02968      0.00000     0.97032    0.00000     0.97032
      H   63    0.02725      0.00000     0.97275    0.00000     0.97275
      H   64    0.03688      0.00000     0.96312    0.00000     0.96312
      H   65    0.03419      0.00000     0.96581    0.00000     0.96581
      H   66    0.02989      0.00000     0.97011    0.00000     0.97011
      H   67    0.02948      0.00000     0.97052    0.00000     0.97052
      H   68    0.03044      0.00000     0.96956    0.00000     0.96956
      H   69    0.03882      0.00000     0.96118    0.00000     0.96118
      H   70    0.03990      0.00000     0.96010    0.00000     0.96010
      H   71    0.03187      0.00000     0.96813    0.00000     0.96813
      H   72    0.02280      0.00000     0.97720    0.00000     0.97720
      H   73    0.04287      0.00000     0.95713    0.00000     0.95713
      H   74    0.02932      0.00000     0.97068    0.00000     0.97068
      H   75    0.04213      0.00000     0.95787    0.00000     0.95787
      H   76    0.04590      0.00000     0.95410    0.00000     0.95410
      H   77    0.04143      0.00000     0.95857    0.00000     0.95857
      H   78    0.04234      0.00000     0.95766    0.00000     0.95766
      H   79    0.03037      0.00000     0.96963    0.00000     0.96963
      H   80    0.04678      0.00000     0.95322    0.00000     0.95322
      H   81    0.05244      0.00000     0.94756    0.00000     0.94756
      H   82    0.04222      0.00000     0.95778    0.00000     0.95778
      H   83    0.04029      0.00000     0.95971    0.00000     0.95971
      H   84    0.03248      0.00000     0.96752    0.00000     0.96752
      H   85    0.02794      0.00000     0.97206    0.00000     0.97206
      H   86    0.03601      0.00000     0.96399    0.00000     0.96399
      H   87    0.02237      0.00000     0.97763    0.00000     0.97763
      H   88    0.03085      0.00000     0.96915    0.00000     0.96915
      H   89    0.02639      0.00000     0.97361    0.00000     0.97361
      H   90    0.03192      0.00000     0.96808    0.00000     0.96808
      H   91    0.02591      0.00000     0.97409    0.00000     0.97409
      H   92    0.05295      0.00000     0.94705    0.00000     0.94705
      H   93    0.02555      0.00000     0.97445    0.00000     0.97445
      H   94    0.03564      0.00000     0.96436    0.00000     0.96436
      H   95    0.05601      0.00000     0.94399    0.00000     0.94399
      H   96    0.02452      0.00000     0.97548    0.00000     0.97548
      H   97    0.03580      0.00000     0.96420    0.00000     0.96420
      H   98    0.04615      0.00000     0.95385    0.00000     0.95385
      H   99    0.06732      0.00000     0.93268    0.00000     0.93268
      H  100    0.02758      0.00000     0.97242    0.00000     0.97242
      H  101    0.05831      0.00000     0.94169    0.00000     0.94169
      H  102    0.07279      0.00000     0.92721    0.00000     0.92721
      H  103    0.02096      0.00000     0.97904    0.00000     0.97904
      H  104    0.03854      0.00000     0.96146    0.00000     0.96146
      H  105    0.04664      0.00000     0.95336    0.00000     0.95336
      H  106    0.04322      0.00000     0.95678    0.00000     0.95678
      H  107    0.03595      0.00000     0.96405    0.00000     0.96405
      H  108    0.04834      0.00000     0.95166    0.00000     0.95166
      H  109    0.05102      0.00000     0.94898    0.00000     0.94898
      H  110    0.02876      0.00000     0.97124    0.00000     0.97124
 =======================================================================
   * Total *   -0.00000    107.99664   286.00336    0.00000   394.00000

 Normal termination of Gaussian 16 at Thu May 30 10:11:05 2024.
