 Gaussian 16, Revision B.01,
 Gaussian 16:  ES64L-G16RevB.01 20-Dec-2017

 ----------------------------------------------
 # nmr=giao hf/sto-3g pop=nbo geom=connectivity
 ----------------------------------------------

 -----------------
 Pleiokomenine_C_2
 -----------------
 Symbolic Z-matrix:
 Charge =  0 Multiplicity = 1

                         Standard orientation:
 ---------------------------------------------------------------------
 Center     Atomic      Atomic             Coordinates (Angstroms)
 Number     Number       Type             X           Y           Z
 ---------------------------------------------------------------------
      1          6           0        1.718307    2.310474   -0.391494
      2          6           0        1.279817    3.426804    0.335321
      3          6           0        1.967612    3.794451    1.510977
      4          6           0        3.048019    3.040416    1.990527
      5          6           0        3.434834    1.906139    1.298500
      6          6           0        2.774616    1.563307    0.106769
      7          7           0        4.449129    0.972286    1.637902
      8          6           0        3.442713    0.349726   -0.489409
      9          6           0        4.058558   -0.222995    0.847265
     10          6           0        2.601378   -0.743915   -1.163790
     11          6           0        2.926551   -1.015817    1.638463
     12          6           0        2.410480   -2.209183    0.826475
     13          6           0        3.006794   -2.145429   -0.592293
     14          7           0        2.819702   -0.550115   -2.597812
     15          6           0        2.408356   -1.661113   -3.443221
     16          6           0        2.830462   -3.043492   -2.946808
     17          6           0        2.434959   -3.255663   -1.485725
     18          6           0        4.375820    0.870118   -1.608688
     19          6           0        4.178954   -0.068994   -2.792074
     20          6           0        4.551612   -2.326059   -0.401843
     21          6           0        5.145380   -1.279612    0.582341
     22          6           0        6.503861   -0.772564    0.131493
     23          8           0        6.965352   -0.904807   -0.995224
     24          8           0        7.180395   -0.214739    1.174387
     25          6           0        8.457893    0.317910    0.825225
     26          6           0        4.807846    0.868021    3.043471
     27          6           0        0.108104    4.258841   -0.152025
     28          6           0       -1.089272    3.449897   -0.614634
     29          6           0       -1.613734    2.429432    0.193291
     30          6           0       -1.688917    3.725615   -1.862966
     31          6           0       -2.763501    2.964746   -2.341735
     32          6           0       -3.228285    1.915317   -1.572178
     33          6           0       -2.662730    1.672281   -0.300062
     34          7           0       -4.217232    0.946325   -1.902673
     35          6           0       -3.437708    0.541906    0.339340
     36          6           0       -3.844487   -0.169996   -0.997435
     37          6           0       -2.780554   -0.501587    1.226353
     38          6           0       -2.541171   -0.888173   -1.635162
     39          6           0       -1.839112   -1.802209   -0.627379
     40          6           0       -2.711702   -1.916953    0.632987
     41          7           0       -3.570576   -0.497876    2.523621
     42          6           0       -2.748155   -1.182248    3.563470
     43          6           0       -2.553649   -2.651462    3.136142
     44          6           0       -2.047693   -2.837276    1.686707
     45          6           0       -4.425056    1.270504    1.294277
     46          6           0       -3.874795    0.943595    2.695250
     47          6           0       -4.103607   -2.420483    0.115314
     48          6           0       -4.813987   -1.358585   -0.801979
     49          6           0       -6.252067   -1.115018   -0.372910
     50          8           0       -6.982513   -1.996925    0.068795
     51          8           0       -6.688542    0.130179   -0.693146
     52          6           0       -8.048425    0.384590   -0.344505
     53          6           0       -4.508521    0.719233   -3.306219
     54          8           0       -4.785136   -1.130047    2.473374
     55          1           0        1.245541    2.026803   -1.328686
     56          1           0        1.661393    4.678737    2.066387
     57          1           0        3.556786    3.349297    2.896441
     58          1           0        1.530960   -0.583591   -0.976451
     59          1           0        2.078614   -0.367971    1.894086
     60          1           0        3.311790   -1.380880    2.599262
     61          1           0        2.686675   -3.148204    1.322614
     62          1           0        1.314668   -2.188091    0.798462
     63          1           0        1.312273   -1.641792   -3.503795
     64          1           0        2.759224   -1.511394   -4.471597
     65          1           0        2.349663   -3.811118   -3.564623
     66          1           0        3.910346   -3.175573   -3.074954
     67          1           0        1.339313   -3.264225   -1.414259
     68          1           0        2.777688   -4.241315   -1.149115
     69          1           0        4.074862    1.874625   -1.940568
     70          1           0        5.419950    0.971982   -1.315431
     71          1           0        4.277501    0.473617   -3.738333
     72          1           0        4.921947   -0.868112   -2.796664
     73          1           0        5.070865   -2.329381   -1.360426
     74          1           0        4.745438   -3.325424    0.013798
     75          1           0        5.358761   -1.820374    1.517330
     76          1           0        9.128430   -0.482697    0.498079
     77          1           0        8.357432    1.082927    0.048837
     78          1           0        8.884968    0.784997    1.716905
     79          1           0        3.928790    0.728776    3.682882
     80          1           0        5.339537    1.768207    3.369913
     81          1           0        5.480211    0.021247    3.211478
     82          1           0       -0.238411    4.928855    0.645085
     83          1           0        0.474113    4.898182   -0.965283
     84          1           0       -1.189482    2.229842    1.171801
     85          1           0       -1.304086    4.531544   -2.485244
     86          1           0       -3.191505    3.187576   -3.312087
     87          1           0       -1.771886   -0.159952    1.503115
     88          1           0       -1.804662   -0.177680   -2.029896
     89          1           0       -2.843930   -1.480864   -2.509568
     90          1           0       -1.654625   -2.785652   -1.076728
     91          1           0       -0.853831   -1.386392   -0.381418
     92          1           0       -3.296980   -1.106241    4.507957
     93          1           0       -1.797934   -0.644715    3.646868
     94          1           0       -1.858057   -3.139500    3.828599
     95          1           0       -3.507058   -3.185188    3.235993
     96          1           0       -0.968494   -2.634330    1.700188
     97          1           0       -2.154728   -3.888737    1.394213
     98          1           0       -4.495057    2.356214    1.160316
     99          1           0       -5.439298    0.880535    1.208987
    100          1           0       -2.940372    1.463085    2.929966
    101          1           0       -4.608322    1.063990    3.497564
    102          1           0       -4.744845   -2.766804    0.929144
    103          1           0       -3.940380   -3.326969   -0.486093
    104          1           0       -4.952692   -1.834065   -1.785413
    105          1           0       -8.268311    1.429248   -0.581283
    106          1           0       -8.208106    0.233351    0.727844
    107          1           0       -8.717877   -0.251846   -0.931282
    108          1           0       -5.230510   -0.095439   -3.419009
    109          1           0       -4.964216    1.609165   -3.753444
    110          1           0       -3.610491    0.461077   -3.877773
 ---------------------------------------------------------------------

 SCF Done:  E(RHF) =  -2300.19728552     A.U. after   16 cycles

      1  C    Isotropic =   124.0257   Anisotropy =   155.4820

      2  C    Isotropic =   118.1720   Anisotropy =   162.2450

      3  C    Isotropic =   118.9117   Anisotropy =   151.7866

      4  C    Isotropic =   133.9321   Anisotropy =   143.1252

      5  C    Isotropic =   109.1489   Anisotropy =   128.1208

      6  C    Isotropic =   117.6176   Anisotropy =   141.2878

      7  N    Isotropic =   274.1692   Anisotropy =    81.9782

      8  C    Isotropic =   196.0451   Anisotropy =    13.0565

      9  C    Isotropic =   181.1444   Anisotropy =    44.1311

     10  C    Isotropic =   190.4011   Anisotropy =    28.0678

     11  C    Isotropic =   213.8219   Anisotropy =    19.9801

     12  C    Isotropic =   213.0730   Anisotropy =    19.4947

     13  C    Isotropic =   213.8593   Anisotropy =     9.4360

     14  N    Isotropic =   303.3248   Anisotropy =    55.0509

     15  C    Isotropic =   205.4856   Anisotropy =    33.1936

     16  C    Isotropic =   224.3537   Anisotropy =     7.8243

     17  C    Isotropic =   215.4420   Anisotropy =    18.5143

     18  C    Isotropic =   210.8014   Anisotropy =    37.3348

     19  C    Isotropic =   199.8270   Anisotropy =    43.4031

     20  C    Isotropic =   212.2782   Anisotropy =    22.3955

     21  C    Isotropic =   209.1677   Anisotropy =    11.5251

     22  C    Isotropic =    96.6638   Anisotropy =    98.9381

     23  O    Isotropic =  -135.1776   Anisotropy =   888.0261

     24  O    Isotropic =   283.8833   Anisotropy =   139.6751

     25  C    Isotropic =   197.3242   Anisotropy =    58.1259

     26  C    Isotropic =   209.9274   Anisotropy =    41.1071

     27  C    Isotropic =   206.1475   Anisotropy =    20.4238

     28  C    Isotropic =   118.3106   Anisotropy =   162.6080

     29  C    Isotropic =   127.5483   Anisotropy =   151.7491

     30  C    Isotropic =   118.5092   Anisotropy =   152.0592

     31  C    Isotropic =   133.4623   Anisotropy =   144.8121

     32  C    Isotropic =   107.7786   Anisotropy =   131.4634

     33  C    Isotropic =   117.5559   Anisotropy =   143.3898

     34  N    Isotropic =   271.1862   Anisotropy =    82.4371

     35  C    Isotropic =   201.0767   Anisotropy =    15.9840

     36  C    Isotropic =   178.7407   Anisotropy =    38.1373

     37  C    Isotropic =   183.7138   Anisotropy =    43.0227

     38  C    Isotropic =   210.8232   Anisotropy =    25.3541

     39  C    Isotropic =   212.6783   Anisotropy =    19.6858

     40  C    Isotropic =   211.5591   Anisotropy =    10.0389

     41  N    Isotropic =   235.5440   Anisotropy =    23.9013

     42  C    Isotropic =   194.0222   Anisotropy =    49.1948

     43  C    Isotropic =   219.3872   Anisotropy =     9.2499

     44  C    Isotropic =   214.9528   Anisotropy =    20.9876

     45  C    Isotropic =   206.8719   Anisotropy =    34.2240

     46  C    Isotropic =   190.8617   Anisotropy =    51.5931

     47  C    Isotropic =   211.1885   Anisotropy =    25.7693

     48  C    Isotropic =   207.6157   Anisotropy =    13.7238

     49  C    Isotropic =    98.5862   Anisotropy =   103.7951

     50  O    Isotropic =  -132.8073   Anisotropy =   874.8193

     51  O    Isotropic =   286.3083   Anisotropy =   132.1732

     52  C    Isotropic =   197.5431   Anisotropy =    58.7038

     53  C    Isotropic =   210.5826   Anisotropy =    41.3237

     54  O    Isotropic =    80.8288   Anisotropy =   395.6947

     55  H    Isotropic =    26.5533   Anisotropy =    15.7495

     56  H    Isotropic =    25.6781   Anisotropy =     5.8649

     57  H    Isotropic =    26.5317   Anisotropy =     7.6985

     58  H    Isotropic =    32.0196   Anisotropy =    14.9601

     59  H    Isotropic =    33.1491   Anisotropy =     9.7716

     60  H    Isotropic =    32.2247   Anisotropy =    12.4225

     61  H    Isotropic =    32.4250   Anisotropy =    13.4625

     62  H    Isotropic =    32.8114   Anisotropy =    18.5319

     63  H    Isotropic =    32.0865   Anisotropy =    14.1824

     64  H    Isotropic =    31.9286   Anisotropy =    15.5246

     65  H    Isotropic =    32.7251   Anisotropy =    17.2740

     66  H    Isotropic =    32.6044   Anisotropy =    12.4847

     67  H    Isotropic =    32.7953   Anisotropy =    14.2025

     68  H    Isotropic =    32.5467   Anisotropy =    14.0266

     69  H    Isotropic =    32.4501   Anisotropy =    11.4573

     70  H    Isotropic =    32.9858   Anisotropy =    12.0396

     71  H    Isotropic =    31.9322   Anisotropy =    16.2769

     72  H    Isotropic =    32.0201   Anisotropy =    10.2566

     73  H    Isotropic =    31.4070   Anisotropy =    10.4471

     74  H    Isotropic =    32.2617   Anisotropy =    14.5020

     75  H    Isotropic =    31.2445   Anisotropy =    12.2391

     76  H    Isotropic =    30.5697   Anisotropy =    11.8813

     77  H    Isotropic =    30.6408   Anisotropy =     8.0823

     78  H    Isotropic =    30.5367   Anisotropy =    12.1621

     79  H    Isotropic =    31.9085   Anisotropy =    10.8287

     80  H    Isotropic =    30.7014   Anisotropy =    14.8651

     81  H    Isotropic =    30.8731   Anisotropy =    10.7909

     82  H    Isotropic =    30.0556   Anisotropy =    11.5320

     83  H    Isotropic =    30.0162   Anisotropy =    11.6358

     84  H    Isotropic =    27.0749   Anisotropy =    14.3515

     85  H    Isotropic =    25.5317   Anisotropy =     5.8251

     86  H    Isotropic =    26.2931   Anisotropy =     7.4928

     87  H    Isotropic =    32.1548   Anisotropy =     9.4151

     88  H    Isotropic =    33.0481   Anisotropy =     8.6532

     89  H    Isotropic =    32.0542   Anisotropy =    11.6087

     90  H    Isotropic =    32.2503   Anisotropy =    13.3298

     91  H    Isotropic =    33.0611   Anisotropy =    19.3737

     92  H    Isotropic =    30.9860   Anisotropy =    14.9016

     93  H    Isotropic =    32.2876   Anisotropy =    10.4444

     94  H    Isotropic =    32.4372   Anisotropy =    16.2631

     95  H    Isotropic =    31.1622   Anisotropy =    14.2905

     96  H    Isotropic =    32.8552   Anisotropy =    15.4845

     97  H    Isotropic =    32.1747   Anisotropy =    13.5419

     98  H    Isotropic =    32.4625   Anisotropy =    11.0783

     99  H    Isotropic =    30.5872   Anisotropy =    14.1078

    100  H    Isotropic =    31.8080   Anisotropy =    10.5846

    101  H    Isotropic =    30.9564   Anisotropy =    15.5755

    102  H    Isotropic =    30.0957   Anisotropy =    12.4684

    103  H    Isotropic =    31.7649   Anisotropy =    13.8941

    104  H    Isotropic =    31.3657   Anisotropy =    12.2650

    105  H    Isotropic =    30.5910   Anisotropy =    11.2208

    106  H    Isotropic =    30.4868   Anisotropy =     9.3600

    107  H    Isotropic =    30.5504   Anisotropy =    12.6402

    108  H    Isotropic =    31.2197   Anisotropy =    11.5478

    109  H    Isotropic =    30.5938   Anisotropy =    15.0832

    110  H    Isotropic =    31.7842   Anisotropy =    10.7873

 The electronic state is 1-A.
 Alpha  occ. eigenvalues --  -20.30806 -20.29063 -20.24832 -20.22284 -19.92122
 Alpha  occ. eigenvalues --  -15.48411 -15.33817 -15.33548 -15.30724 -11.16725
 Alpha  occ. eigenvalues --  -11.14732 -11.10706 -11.09857 -11.09740 -11.09489
 Alpha  occ. eigenvalues --  -11.09415 -11.09178 -11.08888 -11.08243 -11.08054
 Alpha  occ. eigenvalues --  -11.07362 -11.07046 -11.06692 -11.06603 -11.06458
 Alpha  occ. eigenvalues --  -11.06262 -11.05935 -11.05887 -11.05830 -11.05716
 Alpha  occ. eigenvalues --  -11.05654 -11.05335 -11.04996 -11.04959 -11.04660
 Alpha  occ. eigenvalues --  -11.04656 -11.04453 -11.04395 -11.04390 -11.04359
 Alpha  occ. eigenvalues --  -11.04134 -11.03848 -11.03796 -11.03280 -11.02346
 Alpha  occ. eigenvalues --  -11.02308 -11.02255 -11.02118 -11.01949 -11.01942
 Alpha  occ. eigenvalues --  -11.01935 -11.01691 -11.01577 -11.01543  -1.38041
 Alpha  occ. eigenvalues --   -1.36141  -1.29870  -1.27849  -1.25440  -1.21704
 Alpha  occ. eigenvalues --   -1.20910  -1.19073  -1.10672  -1.09961  -1.09087
 Alpha  occ. eigenvalues --   -1.07713  -1.06002  -1.05119  -1.02912  -1.01022
 Alpha  occ. eigenvalues --   -0.99374  -0.98926  -0.98699  -0.97563  -0.97071
 Alpha  occ. eigenvalues --   -0.96658  -0.95418  -0.94727  -0.94176  -0.92429
 Alpha  occ. eigenvalues --   -0.91867  -0.91733  -0.90276  -0.89643  -0.88150
 Alpha  occ. eigenvalues --   -0.86633  -0.85065  -0.82965  -0.82226  -0.81049
 Alpha  occ. eigenvalues --   -0.80582  -0.79858  -0.78503  -0.77970  -0.77683
 Alpha  occ. eigenvalues --   -0.77390  -0.74665  -0.74257  -0.72920  -0.72325
 Alpha  occ. eigenvalues --   -0.71431  -0.70481  -0.69627  -0.68608  -0.66183
 Alpha  occ. eigenvalues --   -0.65501  -0.65140  -0.64913  -0.63838  -0.63351
 Alpha  occ. eigenvalues --   -0.62497  -0.62432  -0.61724  -0.61465  -0.61344
 Alpha  occ. eigenvalues --   -0.60835  -0.59972  -0.59492  -0.58965  -0.58705
 Alpha  occ. eigenvalues --   -0.58446  -0.58366  -0.58053  -0.57977  -0.57441
 Alpha  occ. eigenvalues --   -0.57030  -0.56932  -0.56334  -0.55840  -0.55352
 Alpha  occ. eigenvalues --   -0.55080  -0.54908  -0.54813  -0.54655  -0.54380
 Alpha  occ. eigenvalues --   -0.54148  -0.53653  -0.53399  -0.53310  -0.52275
 Alpha  occ. eigenvalues --   -0.51986  -0.51801  -0.51145  -0.50865  -0.50713
 Alpha  occ. eigenvalues --   -0.50133  -0.49681  -0.49598  -0.49194  -0.48585
 Alpha  occ. eigenvalues --   -0.48480  -0.48302  -0.47865  -0.47518  -0.47371
 Alpha  occ. eigenvalues --   -0.47070  -0.46282  -0.46145  -0.45899  -0.45272
 Alpha  occ. eigenvalues --   -0.45078  -0.44951  -0.44699  -0.44431  -0.43943
 Alpha  occ. eigenvalues --   -0.43674  -0.43383  -0.43156  -0.42850  -0.42723
 Alpha  occ. eigenvalues --   -0.42494  -0.42351  -0.41584  -0.41002  -0.40857
 Alpha  occ. eigenvalues --   -0.40597  -0.39978  -0.39024  -0.38618  -0.38259
 Alpha  occ. eigenvalues --   -0.37688  -0.37446  -0.36725  -0.35717  -0.34434
 Alpha  occ. eigenvalues --   -0.33521  -0.33150  -0.32266  -0.31327  -0.30834
 Alpha  occ. eigenvalues --   -0.27508  -0.27162  -0.26294  -0.21389  -0.20521
 Alpha  occ. eigenvalues --   -0.16048  -0.15549
 Alpha virt. eigenvalues --    0.26605   0.27325   0.27548   0.28216   0.30260
 Alpha virt. eigenvalues --    0.32867   0.45524   0.47847   0.48430   0.48500
 Alpha virt. eigenvalues --    0.49063   0.49956   0.50004   0.51639   0.51946

 Mulliken charges:
               1
     1  C   -0.074484
     2  C   -0.001750
     3  C   -0.064034
     4  C   -0.091264
     5  C    0.088981
     6  C   -0.013709
     7  N   -0.286512
     8  C    0.018221
     9  C    0.128456
    10  C    0.041149
    11  C   -0.114664
    12  C   -0.106010
    13  C    0.027884
    14  N   -0.291248
    15  C   -0.014540
    16  C   -0.108300
    17  C   -0.102135
    18  C   -0.105350
    19  C   -0.019247
    20  C   -0.110493
    21  C   -0.066405
    22  C    0.319585
    23  O   -0.276178
    24  O   -0.255592
    25  C   -0.055864
    26  C   -0.078761
    27  C   -0.110398
    28  C    0.001109
    29  C   -0.079300
    30  C   -0.062124
    31  C   -0.090167
    32  C    0.093657
    33  C   -0.013690
    34  N   -0.278775
    35  C    0.015512
    36  C    0.135063
    37  C    0.039969
    38  C   -0.116489
    39  C   -0.105573
    40  C    0.040494
    41  N   -0.080394
    42  C   -0.002952
    43  C   -0.097114
    44  C   -0.099211
    45  C   -0.095846
    46  C   -0.004376
    47  C   -0.098607
    48  C   -0.059230
    49  C    0.324972
    50  O   -0.273328
    51  O   -0.255595
    52  C   -0.055709
    53  C   -0.077983
    54  O   -0.461331
    55  H    0.068355
    56  H    0.055422
    57  H    0.057985
    58  H    0.054511
    59  H    0.051194
    60  H    0.050674
    61  H    0.048796
    62  H    0.047958
    63  H    0.053231
    64  H    0.062158
    65  H    0.053976
    66  H    0.051008
    67  H    0.049831
    68  H    0.051735
    69  H    0.063918
    70  H    0.063585
    71  H    0.057764
    72  H    0.051356
    73  H    0.068614
    74  H    0.051549
    75  H    0.064840
    76  H    0.072577
    77  H    0.074978
    78  H    0.077403
    79  H    0.054085
    80  H    0.072415
    81  H    0.077022
    82  H    0.059497
    83  H    0.061878
    84  H    0.054691
    85  H    0.057036
    86  H    0.060490
    87  H    0.053724
    88  H    0.056186
    89  H    0.049626
    90  H    0.052521
    91  H    0.045664
    92  H    0.085160
    93  H    0.054838
    94  H    0.057567
    95  H    0.082560
    96  H    0.045398
    97  H    0.058996
    98  H    0.066794
    99  H    0.092969
   100  H    0.056551
   101  H    0.089903
   102  H    0.101174
   103  H    0.045176
   104  H    0.061839
   105  H    0.074334
   106  H    0.076617
   107  H    0.070141
   108  H    0.072023
   109  H    0.073947
   110  H    0.055442
 Sum of Mulliken charges =  -0.00000

 Dipole moment (field-independent basis, Debye):
    X=              4.2175    Y=              0.2915    Z=              0.7108  Tot=              4.2869
 Quadrupole moment (field-independent basis, Debye-Ang):
   XX=           -324.5634   YY=           -300.9130   ZZ=           -291.0457
   XY=            -17.4437   XZ=             21.7503   YZ=              6.0881

 Summary of Natural Population Analysis:

                                       Natural Population
                Natural  -----------------------------------------------
    Atom  No    Charge         Core      Valence    Rydberg      Total
 -----------------------------------------------------------------------
      C    1   -0.05568      1.99993     4.05575    0.00000     6.05568
      C    2    0.01229      1.99990     3.98781    0.00000     5.98771
      C    3   -0.03590      1.99994     4.03596    0.00000     6.03590
      C    4   -0.08841      1.99993     4.08847    0.00000     6.08841
      C    5    0.11218      1.99985     3.88797    0.00000     5.88782
      C    6   -0.02518      1.99990     4.02528    0.00000     6.02518
      N    7   -0.27501      1.99998     5.27503    0.00000     7.27501
      C    8    0.01998      1.99996     3.98006    0.00000     5.98002
      C    9    0.17200      1.99996     3.82804    0.00000     5.82800
      C   10    0.07465      1.99993     3.92542    0.00000     5.92535
      C   11   -0.08474      1.99994     4.08480    0.00000     6.08474
      C   12   -0.07432      1.99996     4.07436    0.00000     6.07432
      C   13    0.05017      1.99998     3.94985    0.00000     5.94983
      N   14   -0.27967      1.99999     5.27968    0.00000     7.27967
      C   15    0.03898      1.99994     3.96109    0.00000     5.96102
      C   16   -0.07477      1.99997     4.07480    0.00000     6.07477
      C   17   -0.06836      1.99996     4.06840    0.00000     6.06836
      C   18   -0.07549      1.99995     4.07555    0.00000     6.07549
      C   19    0.03417      1.99994     3.96589    0.00000     5.96583
      C   20   -0.07362      1.99992     4.07370    0.00000     6.07362
      C   21   -0.08419      1.99994     4.08424    0.00000     6.08419
      C   22    0.40259      1.99991     3.59750    0.00000     5.59741
      O   23   -0.31025      1.99999     6.31026    0.00000     8.31025
      O   24   -0.26716      1.99999     6.26717    0.00000     8.26716
      C   25    0.03460      1.99984     3.96556    0.00000     5.96540
      C   26   -0.01612      1.99992     4.01620    0.00000     6.01612
      C   27   -0.08717      1.99995     4.08721    0.00000     6.08717
      C   28    0.01573      1.99991     3.98436    0.00000     5.98427
      C   29   -0.06343      1.99992     4.06350    0.00000     6.06343
      C   30   -0.03409      1.99994     4.03414    0.00000     6.03409
      C   31   -0.08830      1.99993     4.08837    0.00000     6.08830
      C   32    0.11765      1.99985     3.88250    0.00000     5.88235
      C   33   -0.02203      1.99990     4.02214    0.00000     6.02203
      N   34   -0.26892      1.99998     5.26894    0.00000     7.26892
      C   35    0.01078      1.99996     3.98926    0.00000     5.98922
      C   36    0.17968      1.99996     3.82036    0.00000     5.82032
      C   37    0.06900      1.99991     3.93109    0.00000     5.93100
      C   38   -0.08473      1.99992     4.08481    0.00000     6.08473
      C   39   -0.07475      1.99996     4.07480    0.00000     6.07475
      C   40    0.05969      1.99998     3.94033    0.00000     5.94031
      N   41    0.03440      1.99999     4.96561    0.00000     6.96560
      C   42    0.05030      1.99992     3.94978    0.00000     5.94970
      C   43   -0.06343      1.99995     4.06348    0.00000     6.06343
      C   44   -0.06246      1.99994     4.06252    0.00000     6.06246
      C   45   -0.06453      1.99993     4.06460    0.00000     6.06453
      C   46    0.04622      1.99993     3.95385    0.00000     5.95378
      C   47   -0.06065      1.99991     4.06074    0.00000     6.06065
      C   48   -0.07468      1.99994     4.07475    0.00000     6.07468
      C   49    0.40533      1.99991     3.59476    0.00000     5.59467
      O   50   -0.30889      1.99999     6.30890    0.00000     8.30889
      O   51   -0.26671      1.99999     6.26672    0.00000     8.26671
      C   52    0.03475      1.99984     3.96541    0.00000     5.96525
      C   53   -0.01605      1.99993     4.01613    0.00000     6.01605
      O   54   -0.51434      2.00000     6.51435    0.00000     8.51434
      H   55    0.04203      0.00000     0.95797    0.00000     0.95797
      H   56    0.02835      0.00000     0.97165    0.00000     0.97165
      H   57    0.03398      0.00000     0.96602    0.00000     0.96602
      H   58    0.02342      0.00000     0.97658    0.00000     0.97658
      H   59    0.02859      0.00000     0.97141    0.00000     0.97141
      H   60    0.02853      0.00000     0.97147    0.00000     0.97147
      H   61    0.02790      0.00000     0.97210    0.00000     0.97210
      H   62    0.02706      0.00000     0.97294    0.00000     0.97294
      H   63    0.02625      0.00000     0.97375    0.00000     0.97375
      H   64    0.03631      0.00000     0.96369    0.00000     0.96369
      H   65    0.03412      0.00000     0.96588    0.00000     0.96588
      H   66    0.03040      0.00000     0.96960    0.00000     0.96960
      H   67    0.02909      0.00000     0.97091    0.00000     0.97091
      H   68    0.03082      0.00000     0.96918    0.00000     0.96918
      H   69    0.04261      0.00000     0.95739    0.00000     0.95739
      H   70    0.04098      0.00000     0.95902    0.00000     0.95902
      H   71    0.03146      0.00000     0.96854    0.00000     0.96854
      H   72    0.02230      0.00000     0.97770    0.00000     0.97770
      H   73    0.04325      0.00000     0.95675    0.00000     0.95675
      H   74    0.02932      0.00000     0.97068    0.00000     0.97068
      H   75    0.04199      0.00000     0.95801    0.00000     0.95801
      H   76    0.04101      0.00000     0.95899    0.00000     0.95899
      H   77    0.04345      0.00000     0.95655    0.00000     0.95655
      H   78    0.04631      0.00000     0.95369    0.00000     0.95369
      H   79    0.02880      0.00000     0.97120    0.00000     0.97120
      H   80    0.04800      0.00000     0.95200    0.00000     0.95200
      H   81    0.05259      0.00000     0.94741    0.00000     0.94741
      H   82    0.04074      0.00000     0.95926    0.00000     0.95926
      H   83    0.04296      0.00000     0.95704    0.00000     0.95704
      H   84    0.03002      0.00000     0.96998    0.00000     0.96998
      H   85    0.02976      0.00000     0.97024    0.00000     0.97024
      H   86    0.03639      0.00000     0.96361    0.00000     0.96361
      H   87    0.02163      0.00000     0.97837    0.00000     0.97837
      H   88    0.03233      0.00000     0.96767    0.00000     0.96767
      H   89    0.02683      0.00000     0.97317    0.00000     0.97317
      H   90    0.03168      0.00000     0.96832    0.00000     0.96832
      H   91    0.02478      0.00000     0.97522    0.00000     0.97522
      H   92    0.05354      0.00000     0.94646    0.00000     0.94646
      H   93    0.02434      0.00000     0.97566    0.00000     0.97566
      H   94    0.03580      0.00000     0.96420    0.00000     0.96420
      H   95    0.05769      0.00000     0.94231    0.00000     0.94231
      H   96    0.02329      0.00000     0.97671    0.00000     0.97671
      H   97    0.03662      0.00000     0.96338    0.00000     0.96338
      H   98    0.04372      0.00000     0.95628    0.00000     0.95628
      H   99    0.06560      0.00000     0.93440    0.00000     0.93440
      H  100    0.02617      0.00000     0.97383    0.00000     0.97383
      H  101    0.05837      0.00000     0.94163    0.00000     0.94163
      H  102    0.07200      0.00000     0.92800    0.00000     0.92800
      H  103    0.02167      0.00000     0.97833    0.00000     0.97833
      H  104    0.03886      0.00000     0.96114    0.00000     0.96114
      H  105    0.04349      0.00000     0.95651    0.00000     0.95651
      H  106    0.04502      0.00000     0.95498    0.00000     0.95498
      H  107    0.03885      0.00000     0.96115    0.00000     0.96115
      H  108    0.04815      0.00000     0.95185    0.00000     0.95185
      H  109    0.04973      0.00000     0.95027    0.00000     0.95027
      H  110    0.02992      0.00000     0.97008    0.00000     0.97008
 =======================================================================
   * Total *   -0.00000    107.99665   286.00335    0.00000   394.00000

 Normal termination of Gaussian 16 at Thu May 30 09:51:21 2024.
