 Gaussian 16, Revision B.01,
 Gaussian 16:  ES64L-G16RevB.01 20-Dec-2017

 ----------------------------------------------
 # nmr=giao hf/sto-3g pop=nbo geom=connectivity
 ----------------------------------------------

 -----------------
 Pleiokomenine_C_2
 -----------------
 Symbolic Z-matrix:
 Charge =  0 Multiplicity = 1

                         Standard orientation:
 ---------------------------------------------------------------------
 Center     Atomic      Atomic             Coordinates (Angstroms)
 Number     Number       Type             X           Y           Z
 ---------------------------------------------------------------------
      1          6           0       -1.784979    1.875184   -1.497948
      2          6           0       -1.279104    3.179469   -1.413494
      3          6           0       -1.817149    4.067910   -0.459388
      4          6           0       -2.852793    3.674137    0.399856
      5          6           0       -3.339543    2.381399    0.316248
      6          6           0       -2.778611    1.489446   -0.612855
      7          7           0       -4.374444    1.779758    1.080578
      8          6           0       -3.361126    0.118880   -0.379576
      9          6           0       -4.721775    0.583556    0.270712
     10          6           0       -3.650199   -0.817607   -1.559991
     11          6           0       -5.723569    1.005012   -0.889654
     12          6           0       -6.032017   -0.180091   -1.815088
     13          6           0       -5.114604   -1.362390   -1.442581
     14          7           0       -2.579098   -1.819931   -1.512159
     15          6           0       -2.823904   -3.014242   -2.309852
     16          6           0       -4.227305   -3.606999   -2.185375
     17          6           0       -5.304550   -2.544401   -2.403714
     18          6           0       -2.322153   -0.648292    0.477366
     19          6           0       -2.238880   -2.047990   -0.115893
     20          6           0       -5.528244   -1.764058    0.014639
     21          6           0       -5.444729   -0.564074    0.997193
     22          6           0       -4.898476   -0.968310    2.355067
     23          8           0       -4.274308   -1.996977    2.584407
     24          8           0       -5.260213   -0.063804    3.307707
     25          6           0       -4.756759   -0.353386    4.611612
     26          6           0       -5.404189    2.667646    1.598159
     27          6           0       -0.096084    3.591183   -2.265969
     28          6           0        1.232815    3.247393   -1.624167
     29          6           0        1.603021    1.905062   -1.459982
     30          6           0        2.097320    4.264152   -1.164107
     31          6           0        3.304102    3.960829   -0.515362
     32          6           0        3.631234    2.634464   -0.304890
     33          6           0        2.782498    1.619320   -0.796401
     34          7           0        4.727653    2.092043    0.421000
     35          6           0        3.431816    0.287146   -0.501084
     36          6           0        4.202415    0.753088    0.783850
     37          6           0        2.628537   -0.946244   -0.126323
     38          6           0        3.152933    0.964579    1.995153
     39          6           0        2.258918   -0.260981    2.200031
     40          6           0        2.784544   -1.411882    1.327864
     41          7           0        3.066673   -2.036467   -1.091274
     42          6           0        2.038475   -3.118075   -1.051226
     43          6           0        2.026882   -3.721981    0.367676
     44          6           0        1.920319   -2.684010    1.509270
     45          6           0        4.100159   -0.102527   -1.850202
     46          6           0        3.239820   -1.275833   -2.353663
     47          6           0        4.287193   -1.579346    1.742132
     48          6           0        5.155013   -0.323548    1.351624
     49          6           0        6.394959   -0.645715    0.531136
     50          8           0        6.926131    0.101268   -0.280308
     51          8           0        6.946592   -1.825957    0.942069
     52          6           0        8.081934   -2.231678    0.179925
     53          6           0        5.403747    2.934292    1.387416
     54          8           0        4.286446   -2.609303   -0.825388
     55          1           0       -1.372431    1.155675   -2.198413
     56          1           0       -1.413292    5.074206   -0.367572
     57          1           0       -3.240324    4.376629    1.128648
     58          1           0       -3.548544   -0.284986   -2.515338
     59          1           0       -6.665072    1.381194   -0.468989
     60          1           0       -5.324690    1.831597   -1.490816
     61          1           0       -7.087788   -0.463675   -1.720566
     62          1           0       -5.887793    0.121645   -2.859994
     63          1           0       -2.660712   -2.746582   -3.361955
     64          1           0       -2.074032   -3.783008   -2.086281
     65          1           0       -4.350334   -4.401593   -2.930741
     66          1           0       -4.349247   -4.081848   -1.205828
     67          1           0       -5.249120   -2.193159   -3.442329
     68          1           0       -6.297186   -2.992780   -2.278066
     69          1           0       -1.321601   -0.200255    0.384251
     70          1           0       -2.530473   -0.648765    1.546639
     71          1           0       -1.226173   -2.451918   -0.015157
     72          1           0       -2.915452   -2.740281    0.386615
     73          1           0       -4.958848   -2.624190    0.367196
     74          1           0       -6.569747   -2.116983    0.004309
     75          1           0       -6.482882   -0.262249    1.205201
     76          1           0       -3.663231   -0.400721    4.600663
     77          1           0       -5.182843   -1.289259    4.985875
     78          1           0       -5.060433    0.457424    5.279454
     79          1           0       -5.822720    3.311386    0.816240
     80          1           0       -4.998573    3.301109    2.394200
     81          1           0       -6.227042    2.093813    2.035261
     82          1           0       -0.157048    3.104527   -3.248328
     83          1           0       -0.154383    4.667379   -2.473454
     84          1           0        0.974765    1.105385   -1.833731
     85          1           0        1.826485    5.309538   -1.297113
     86          1           0        3.943371    4.761704   -0.163033
     87          1           0        1.566172   -0.770931   -0.353517
     88          1           0        2.510461    1.843754    1.864225
     89          1           0        3.706295    1.167529    2.922650
     90          1           0        2.242397   -0.539673    3.260856
     91          1           0        1.224591   -0.010122    1.930946
     92          1           0        2.325549   -3.860706   -1.803003
     93          1           0        1.074689   -2.675517   -1.323047
     94          1           0        2.945859   -4.302046    0.519060
     95          1           0        1.199463   -4.436465    0.448702
     96          1           0        2.153356   -3.168121    2.465393
     97          1           0        0.864918   -2.385415    1.570097
     98          1           0        4.131604    0.691504   -2.605327
     99          1           0        5.125999   -0.444755   -1.718929
    100          1           0        3.743098   -1.909626   -3.089302
    101          1           0        2.249188   -0.970301   -2.704946
    102          1           0        4.704743   -2.519469    1.376975
    103          1           0        4.332304   -1.687659    2.836030
    104          1           0        5.587350    0.062481    2.287483
    105          1           0        8.377356   -3.229122    0.517192
    106          1           0        7.835459   -2.287605   -0.885246
    107          1           0        8.918238   -1.546787    0.350028
    108          1           0        6.186799    2.370009    1.903487
    109          1           0        5.896451    3.775382    0.888074
    110          1           0        4.714890    3.330157    2.141475
 ---------------------------------------------------------------------

 SCF Done:  E(RHF) =  -2300.20198790     A.U. after   16 cycles

      1  C    Isotropic =   124.8764   Anisotropy =   149.2276

      2  C    Isotropic =   119.4654   Anisotropy =   159.4967

      3  C    Isotropic =   119.3883   Anisotropy =   153.9841

      4  C    Isotropic =   133.6867   Anisotropy =   143.3533

      5  C    Isotropic =   109.3303   Anisotropy =   127.7365

      6  C    Isotropic =   117.4827   Anisotropy =   141.7853

      7  N    Isotropic =   274.5316   Anisotropy =    82.2331

      8  C    Isotropic =   196.0375   Anisotropy =    11.8283

      9  C    Isotropic =   181.1151   Anisotropy =    44.8736

     10  C    Isotropic =   190.4332   Anisotropy =    30.2443

     11  C    Isotropic =   213.7936   Anisotropy =    19.7163

     12  C    Isotropic =   212.7658   Anisotropy =    21.4468

     13  C    Isotropic =   213.5449   Anisotropy =     8.7190

     14  N    Isotropic =   301.8952   Anisotropy =    54.6247

     15  C    Isotropic =   205.2088   Anisotropy =    34.4054

     16  C    Isotropic =   224.1768   Anisotropy =     9.0033

     17  C    Isotropic =   215.3455   Anisotropy =    19.5680

     18  C    Isotropic =   210.3632   Anisotropy =    37.8794

     19  C    Isotropic =   199.9734   Anisotropy =    40.6206

     20  C    Isotropic =   212.1383   Anisotropy =    20.7933

     21  C    Isotropic =   209.1093   Anisotropy =     9.5057

     22  C    Isotropic =    96.3053   Anisotropy =    98.3674

     23  O    Isotropic =  -134.2112   Anisotropy =   888.6699

     24  O    Isotropic =   283.5590   Anisotropy =   140.0162

     25  C    Isotropic =   197.3669   Anisotropy =    56.9445

     26  C    Isotropic =   209.9738   Anisotropy =    42.1568

     27  C    Isotropic =   206.5507   Anisotropy =    15.3573

     28  C    Isotropic =   121.0911   Anisotropy =   155.7620

     29  C    Isotropic =   128.0944   Anisotropy =   148.6189

     30  C    Isotropic =   119.5910   Anisotropy =   148.8588

     31  C    Isotropic =   133.7244   Anisotropy =   143.3033

     32  C    Isotropic =   108.0442   Anisotropy =   130.3496

     33  C    Isotropic =   117.8207   Anisotropy =   141.0819

     34  N    Isotropic =   272.3874   Anisotropy =    84.5074

     35  C    Isotropic =   201.1018   Anisotropy =    17.2536

     36  C    Isotropic =   179.2895   Anisotropy =    40.5134

     37  C    Isotropic =   183.5024   Anisotropy =    41.2932

     38  C    Isotropic =   211.1935   Anisotropy =    22.9726

     39  C    Isotropic =   213.0643   Anisotropy =    18.7228

     40  C    Isotropic =   211.7043   Anisotropy =    10.3439

     41  N    Isotropic =   235.3334   Anisotropy =    24.9272

     42  C    Isotropic =   193.7033   Anisotropy =    50.0871

     43  C    Isotropic =   219.2836   Anisotropy =     8.4192

     44  C    Isotropic =   214.9286   Anisotropy =    21.3949

     45  C    Isotropic =   207.3510   Anisotropy =    33.8429

     46  C    Isotropic =   190.7077   Anisotropy =    51.5878

     47  C    Isotropic =   211.7394   Anisotropy =    26.9170

     48  C    Isotropic =   207.2271   Anisotropy =    17.6498

     49  C    Isotropic =    98.2356   Anisotropy =    97.1605

     50  O    Isotropic =  -132.9391   Anisotropy =   879.0861

     51  O    Isotropic =   285.8130   Anisotropy =   142.3913

     52  C    Isotropic =   197.4798   Anisotropy =    57.1980

     53  C    Isotropic =   211.0617   Anisotropy =    41.9952

     54  O    Isotropic =    74.5004   Anisotropy =   408.2218

     55  H    Isotropic =    25.5136   Anisotropy =    13.0183

     56  H    Isotropic =    25.8921   Anisotropy =     6.8167

     57  H    Isotropic =    26.6795   Anisotropy =     7.8965

     58  H    Isotropic =    31.4245   Anisotropy =     8.3206

     59  H    Isotropic =    32.1562   Anisotropy =    14.0286

     60  H    Isotropic =    32.8532   Anisotropy =     9.0250

     61  H    Isotropic =    32.3198   Anisotropy =    15.5773

     62  H    Isotropic =    32.5361   Anisotropy =    13.7044

     63  H    Isotropic =    31.7677   Anisotropy =    13.7082

     64  H    Isotropic =    31.8419   Anisotropy =    14.2251

     65  H    Isotropic =    32.5955   Anisotropy =    17.9031

     66  H    Isotropic =    32.5155   Anisotropy =    10.0994

     67  H    Isotropic =    32.6076   Anisotropy =    13.4225

     68  H    Isotropic =    32.4491   Anisotropy =    15.1765

     69  H    Isotropic =    32.6958   Anisotropy =    16.8129

     70  H    Isotropic =    33.0264   Anisotropy =     8.8704

     71  H    Isotropic =    32.0221   Anisotropy =    19.6660

     72  H    Isotropic =    31.8847   Anisotropy =     7.8189

     73  H    Isotropic =    31.4073   Anisotropy =     8.9155

     74  H    Isotropic =    32.1918   Anisotropy =    15.1370

     75  H    Isotropic =    31.1745   Anisotropy =    12.9095

     76  H    Isotropic =    30.7056   Anisotropy =     7.6078

     77  H    Isotropic =    30.5918   Anisotropy =    11.6212

     78  H    Isotropic =    30.5706   Anisotropy =    12.0777

     79  H    Isotropic =    31.9324   Anisotropy =    12.3155

     80  H    Isotropic =    30.7800   Anisotropy =    14.1658

     81  H    Isotropic =    30.9327   Anisotropy =    10.9512

     82  H    Isotropic =    30.0495   Anisotropy =     8.1314

     83  H    Isotropic =    29.9041   Anisotropy =    12.5869

     84  H    Isotropic =    26.2248   Anisotropy =    13.3049

     85  H    Isotropic =    25.7205   Anisotropy =     6.6771

     86  H    Isotropic =    26.5459   Anisotropy =     7.4597

     87  H    Isotropic =    31.8569   Anisotropy =    11.8717

     88  H    Isotropic =    33.5850   Anisotropy =     8.2477

     89  H    Isotropic =    32.3254   Anisotropy =    12.9983

     90  H    Isotropic =    32.4692   Anisotropy =    14.0990

     91  H    Isotropic =    33.4006   Anisotropy =    15.2141

     92  H    Isotropic =    30.7941   Anisotropy =    13.4857

     93  H    Isotropic =    31.7634   Anisotropy =    14.5181

     94  H    Isotropic =    31.0634   Anisotropy =    14.0817

     95  H    Isotropic =    32.2972   Anisotropy =    15.6060

     96  H    Isotropic =    32.1878   Anisotropy =    14.3112

     97  H    Isotropic =    32.8103   Anisotropy =    14.7504

     98  H    Isotropic =    32.5837   Anisotropy =    11.2256

     99  H    Isotropic =    31.2822   Anisotropy =    12.6299

    100  H    Isotropic =    30.8851   Anisotropy =    14.7832

    101  H    Isotropic =    31.4698   Anisotropy =    10.3568

    102  H    Isotropic =    29.8844   Anisotropy =    11.4702

    103  H    Isotropic =    31.8583   Anisotropy =    14.1985

    104  H    Isotropic =    31.4679   Anisotropy =    12.8934

    105  H    Isotropic =    30.6317   Anisotropy =    12.5081

    106  H    Isotropic =    30.5501   Anisotropy =     7.3239

    107  H    Isotropic =    30.5965   Anisotropy =    11.8195

    108  H    Isotropic =    31.5461   Anisotropy =    12.1368

    109  H    Isotropic =    30.8369   Anisotropy =    15.2856

    110  H    Isotropic =    32.0484   Anisotropy =    11.2163

 The electronic state is 1-A.
 Alpha  occ. eigenvalues --  -20.30905 -20.28394 -20.24886 -20.22407 -19.91912
 Alpha  occ. eigenvalues --  -15.47947 -15.33808 -15.33246 -15.31166 -11.16810
 Alpha  occ. eigenvalues --  -11.14618 -11.10794 -11.09743 -11.09396 -11.09128
 Alpha  occ. eigenvalues --  -11.08965 -11.08628 -11.08453 -11.08169 -11.07816
 Alpha  occ. eigenvalues --  -11.07501 -11.07360 -11.06750 -11.06704 -11.06193
 Alpha  occ. eigenvalues --  -11.06086 -11.06017 -11.05800 -11.05737 -11.05660
 Alpha  occ. eigenvalues --  -11.05499 -11.04974 -11.04737 -11.04552 -11.04522
 Alpha  occ. eigenvalues --  -11.04516 -11.04462 -11.04357 -11.04293 -11.04253
 Alpha  occ. eigenvalues --  -11.04225 -11.03904 -11.03423 -11.02980 -11.02272
 Alpha  occ. eigenvalues --  -11.02164 -11.02006 -11.01958 -11.01931 -11.01772
 Alpha  occ. eigenvalues --  -11.01748 -11.01741 -11.01580 -11.01312  -1.38123
 Alpha  occ. eigenvalues --   -1.35637  -1.29325  -1.27945  -1.25380  -1.21780
 Alpha  occ. eigenvalues --   -1.20644  -1.19312  -1.10308  -1.10008  -1.08978
 Alpha  occ. eigenvalues --   -1.07614  -1.05680  -1.05227  -1.02601  -1.01057
 Alpha  occ. eigenvalues --   -0.99306  -0.98619  -0.98557  -0.97431  -0.97167
 Alpha  occ. eigenvalues --   -0.96314  -0.94990  -0.94939  -0.94129  -0.92449
 Alpha  occ. eigenvalues --   -0.91904  -0.91586  -0.89572  -0.89229  -0.87929
 Alpha  occ. eigenvalues --   -0.86548  -0.84894  -0.82882  -0.82255  -0.81001
 Alpha  occ. eigenvalues --   -0.80231  -0.79976  -0.78127  -0.78069  -0.77656
 Alpha  occ. eigenvalues --   -0.77190  -0.74494  -0.74170  -0.72684  -0.72365
 Alpha  occ. eigenvalues --   -0.71490  -0.70289  -0.69751  -0.68163  -0.66277
 Alpha  occ. eigenvalues --   -0.65283  -0.64853  -0.64568  -0.63775  -0.62740
 Alpha  occ. eigenvalues --   -0.62535  -0.62301  -0.61587  -0.61355  -0.61145
 Alpha  occ. eigenvalues --   -0.60957  -0.60117  -0.59041  -0.58936  -0.58554
 Alpha  occ. eigenvalues --   -0.58329  -0.58145  -0.57743  -0.57613  -0.57358
 Alpha  occ. eigenvalues --   -0.57080  -0.56715  -0.56148  -0.55932  -0.55513
 Alpha  occ. eigenvalues --   -0.55003  -0.54890  -0.54647  -0.54372  -0.54278
 Alpha  occ. eigenvalues --   -0.54171  -0.54095  -0.53506  -0.52718  -0.52075
 Alpha  occ. eigenvalues --   -0.51586  -0.51234  -0.50917  -0.50752  -0.50165
 Alpha  occ. eigenvalues --   -0.50087  -0.49860  -0.49240  -0.48955  -0.48663
 Alpha  occ. eigenvalues --   -0.48377  -0.48296  -0.47945  -0.47363  -0.46989
 Alpha  occ. eigenvalues --   -0.46571  -0.46307  -0.45807  -0.45711  -0.45216
 Alpha  occ. eigenvalues --   -0.45054  -0.44808  -0.44631  -0.44367  -0.43982
 Alpha  occ. eigenvalues --   -0.43802  -0.43211  -0.43162  -0.42859  -0.42795
 Alpha  occ. eigenvalues --   -0.42332  -0.41903  -0.41634  -0.41228  -0.40927
 Alpha  occ. eigenvalues --   -0.40330  -0.39823  -0.38813  -0.38566  -0.38038
 Alpha  occ. eigenvalues --   -0.37748  -0.37125  -0.36797  -0.35379  -0.34449
 Alpha  occ. eigenvalues --   -0.33607  -0.32993  -0.32355  -0.31090  -0.30395
 Alpha  occ. eigenvalues --   -0.27592  -0.26999  -0.26607  -0.21331  -0.20272
 Alpha  occ. eigenvalues --   -0.15863  -0.15342
 Alpha virt. eigenvalues --    0.26621   0.26865   0.27499   0.29235   0.30146
 Alpha virt. eigenvalues --    0.32957   0.45860   0.47909   0.47992   0.49194
 Alpha virt. eigenvalues --    0.49480   0.49910   0.50346   0.51655   0.51955

 Mulliken charges:
               1
     1  C   -0.075241
     2  C    0.000910
     3  C   -0.061795
     4  C   -0.089069
     5  C    0.088857
     6  C   -0.013667
     7  N   -0.286787
     8  C    0.017876
     9  C    0.128203
    10  C    0.039583
    11  C   -0.114890
    12  C   -0.105516
    13  C    0.028033
    14  N   -0.291730
    15  C   -0.015823
    16  C   -0.108209
    17  C   -0.102124
    18  C   -0.104716
    19  C   -0.020936
    20  C   -0.110586
    21  C   -0.066608
    22  C    0.319830
    23  O   -0.277480
    24  O   -0.255227
    25  C   -0.055858
    26  C   -0.079040
    27  C   -0.109538
    28  C    0.001468
    29  C   -0.079173
    30  C   -0.061449
    31  C   -0.090044
    32  C    0.095092
    33  C   -0.012549
    34  N   -0.280548
    35  C    0.015002
    36  C    0.134468
    37  C    0.039483
    38  C   -0.116229
    39  C   -0.105401
    40  C    0.040092
    41  N   -0.081448
    42  C   -0.004356
    43  C   -0.097349
    44  C   -0.099360
    45  C   -0.097936
    46  C   -0.004844
    47  C   -0.098726
    48  C   -0.058669
    49  C    0.326851
    50  O   -0.275403
    51  O   -0.255832
    52  C   -0.054052
    53  C   -0.077553
    54  O   -0.461654
    55  H    0.061556
    56  H    0.057011
    57  H    0.058774
    58  H    0.056745
    59  H    0.051272
    60  H    0.054922
    61  H    0.048960
    62  H    0.050816
    63  H    0.053954
    64  H    0.059986
    65  H    0.054795
    66  H    0.050992
    67  H    0.050569
    68  H    0.052219
    69  H    0.059562
    70  H    0.064796
    71  H    0.052353
    72  H    0.054041
    73  H    0.067388
    74  H    0.051904
    75  H    0.065461
    76  H    0.074537
    77  H    0.072677
    78  H    0.077671
    79  H    0.055709
    80  H    0.072174
    81  H    0.076421
    82  H    0.058225
    83  H    0.058016
    84  H    0.055262
    85  H    0.055935
    86  H    0.059961
    87  H    0.055832
    88  H    0.055462
    89  H    0.048861
    90  H    0.052772
    91  H    0.048065
    92  H    0.083823
    93  H    0.059282
    94  H    0.080367
    95  H    0.057510
    96  H    0.058335
    97  H    0.047902
    98  H    0.067477
    99  H    0.095095
   100  H    0.089201
   101  H    0.057438
   102  H    0.102094
   103  H    0.044599
   104  H    0.061790
   105  H    0.074082
   106  H    0.078138
   107  H    0.067262
   108  H    0.072075
   109  H    0.075044
   110  H    0.054498
 Sum of Mulliken charges =  -0.00000

 Dipole moment (field-independent basis, Debye):
    X=             -5.8239    Y=              0.7144    Z=              1.1674  Tot=              5.9825
 Quadrupole moment (field-independent basis, Debye-Ang):
   XX=           -305.2861   YY=           -301.4983   ZZ=           -290.3597
   XY=              5.7510   XZ=              8.7077   YZ=              7.0615

 Summary of Natural Population Analysis:

                                       Natural Population
                Natural  -----------------------------------------------
    Atom  No    Charge         Core      Valence    Rydberg      Total
 -----------------------------------------------------------------------
      C    1   -0.05716      1.99992     4.05723    0.00000     6.05716
      C    2    0.01511      1.99990     3.98499    0.00000     5.98489
      C    3   -0.03360      1.99994     4.03365    0.00000     6.03360
      C    4   -0.08565      1.99993     4.08572    0.00000     6.08565
      C    5    0.11163      1.99985     3.88851    0.00000     5.88837
      C    6   -0.02490      1.99990     4.02500    0.00000     6.02490
      N    7   -0.27515      1.99998     5.27517    0.00000     7.27515
      C    8    0.01948      1.99996     3.98056    0.00000     5.98052
      C    9    0.17146      1.99996     3.82858    0.00000     5.82854
      C   10    0.07322      1.99993     3.92684    0.00000     5.92678
      C   11   -0.08516      1.99994     4.08523    0.00000     6.08516
      C   12   -0.07349      1.99996     4.07353    0.00000     6.07349
      C   13    0.05045      1.99998     3.94957    0.00000     5.94955
      N   14   -0.27961      1.99999     5.27961    0.00000     7.27961
      C   15    0.03785      1.99994     3.96221    0.00000     5.96215
      C   16   -0.07460      1.99997     4.07463    0.00000     6.07460
      C   17   -0.06850      1.99996     4.06855    0.00000     6.06850
      C   18   -0.07434      1.99995     4.07439    0.00000     6.07434
      C   19    0.03225      1.99994     3.96781    0.00000     5.96775
      C   20   -0.07382      1.99992     4.07390    0.00000     6.07382
      C   21   -0.08458      1.99994     4.08464    0.00000     6.08458
      C   22    0.40321      1.99991     3.59688    0.00000     5.59679
      O   23   -0.31168      1.99999     6.31170    0.00000     8.31168
      O   24   -0.26681      1.99999     6.26682    0.00000     8.26681
      C   25    0.03458      1.99984     3.96558    0.00000     5.96542
      C   26   -0.01636      1.99992     4.01644    0.00000     6.01636
      C   27   -0.08602      1.99995     4.08607    0.00000     6.08602
      C   28    0.01583      1.99990     3.98427    0.00000     5.98417
      C   29   -0.06351      1.99992     4.06359    0.00000     6.06351
      C   30   -0.03300      1.99994     4.03306    0.00000     6.03300
      C   31   -0.08814      1.99993     4.08820    0.00000     6.08814
      C   32    0.11945      1.99985     3.88069    0.00000     5.88055
      C   33   -0.02128      1.99990     4.02139    0.00000     6.02128
      N   34   -0.27062      1.99998     5.27064    0.00000     7.27062
      C   35    0.01058      1.99996     3.98947    0.00000     5.98942
      C   36    0.17878      1.99996     3.82126    0.00000     5.82122
      C   37    0.06868      1.99991     3.93141    0.00000     5.93132
      C   38   -0.08462      1.99993     4.08469    0.00000     6.08462
      C   39   -0.07479      1.99996     4.07483    0.00000     6.07479
      C   40    0.05885      1.99998     3.94118    0.00000     5.94115
      N   41    0.03290      1.99999     4.96711    0.00000     6.96710
      C   42    0.04892      1.99992     3.95116    0.00000     5.95108
      C   43   -0.06353      1.99995     4.06358    0.00000     6.06353
      C   44   -0.06263      1.99994     4.06269    0.00000     6.06263
      C   45   -0.06693      1.99993     4.06700    0.00000     6.06693
      C   46    0.04589      1.99993     3.95417    0.00000     5.95411
      C   47   -0.06044      1.99991     4.06054    0.00000     6.06044
      C   48   -0.07405      1.99994     4.07412    0.00000     6.07405
      C   49    0.40908      1.99991     3.59102    0.00000     5.59092
      O   50   -0.31076      1.99999     6.31078    0.00000     8.31076
      O   51   -0.26816      1.99999     6.26817    0.00000     8.26816
      C   52    0.03623      1.99984     3.96393    0.00000     5.96377
      C   53   -0.01582      1.99993     4.01589    0.00000     6.01582
      O   54   -0.51416      2.00000     6.51416    0.00000     8.51416
      H   55    0.03599      0.00000     0.96401    0.00000     0.96401
      H   56    0.02970      0.00000     0.97030    0.00000     0.97030
      H   57    0.03455      0.00000     0.96545    0.00000     0.96545
      H   58    0.02549      0.00000     0.97451    0.00000     0.97451
      H   59    0.02911      0.00000     0.97089    0.00000     0.97089
      H   60    0.03197      0.00000     0.96803    0.00000     0.96803
      H   61    0.02787      0.00000     0.97213    0.00000     0.97213
      H   62    0.02967      0.00000     0.97033    0.00000     0.97033
      H   63    0.02687      0.00000     0.97313    0.00000     0.97313
      H   64    0.03426      0.00000     0.96574    0.00000     0.96574
      H   65    0.03485      0.00000     0.96515    0.00000     0.96515
      H   66    0.03035      0.00000     0.96965    0.00000     0.96965
      H   67    0.02974      0.00000     0.97026    0.00000     0.97026
      H   68    0.03127      0.00000     0.96873    0.00000     0.96873
      H   69    0.03853      0.00000     0.96147    0.00000     0.96147
      H   70    0.04195      0.00000     0.95805    0.00000     0.95805
      H   71    0.02657      0.00000     0.97343    0.00000     0.97343
      H   72    0.02482      0.00000     0.97518    0.00000     0.97518
      H   73    0.04217      0.00000     0.95783    0.00000     0.95783
      H   74    0.02972      0.00000     0.97028    0.00000     0.97028
      H   75    0.04256      0.00000     0.95744    0.00000     0.95744
      H   76    0.04306      0.00000     0.95694    0.00000     0.95694
      H   77    0.04110      0.00000     0.95890    0.00000     0.95890
      H   78    0.04656      0.00000     0.95344    0.00000     0.95344
      H   79    0.03027      0.00000     0.96973    0.00000     0.96973
      H   80    0.04776      0.00000     0.95224    0.00000     0.95224
      H   81    0.05201      0.00000     0.94799    0.00000     0.94799
      H   82    0.03955      0.00000     0.96045    0.00000     0.96045
      H   83    0.03884      0.00000     0.96116    0.00000     0.96116
      H   84    0.03040      0.00000     0.96960    0.00000     0.96960
      H   85    0.02861      0.00000     0.97139    0.00000     0.97139
      H   86    0.03577      0.00000     0.96423    0.00000     0.96423
      H   87    0.02358      0.00000     0.97642    0.00000     0.97642
      H   88    0.03173      0.00000     0.96827    0.00000     0.96827
      H   89    0.02620      0.00000     0.97380    0.00000     0.97380
      H   90    0.03196      0.00000     0.96804    0.00000     0.96804
      H   91    0.02709      0.00000     0.97291    0.00000     0.97291
      H   92    0.05234      0.00000     0.94766    0.00000     0.94766
      H   93    0.02838      0.00000     0.97162    0.00000     0.97162
      H   94    0.05570      0.00000     0.94430    0.00000     0.94430
      H   95    0.03577      0.00000     0.96423    0.00000     0.96423
      H   96    0.03603      0.00000     0.96397    0.00000     0.96397
      H   97    0.02564      0.00000     0.97436    0.00000     0.97436
      H   98    0.04448      0.00000     0.95552    0.00000     0.95552
      H   99    0.06745      0.00000     0.93255    0.00000     0.93255
      H  100    0.05774      0.00000     0.94226    0.00000     0.94226
      H  101    0.02699      0.00000     0.97301    0.00000     0.97301
      H  102    0.07271      0.00000     0.92729    0.00000     0.92729
      H  103    0.02110      0.00000     0.97890    0.00000     0.97890
      H  104    0.03866      0.00000     0.96134    0.00000     0.96134
      H  105    0.04332      0.00000     0.95668    0.00000     0.95668
      H  106    0.04645      0.00000     0.95355    0.00000     0.95355
      H  107    0.03601      0.00000     0.96399    0.00000     0.96399
      H  108    0.04829      0.00000     0.95171    0.00000     0.95171
      H  109    0.05081      0.00000     0.94919    0.00000     0.94919
      H  110    0.02907      0.00000     0.97093    0.00000     0.97093
 =======================================================================
   * Total *   -0.00000    107.99663   286.00337    0.00000   394.00000

 Normal termination of Gaussian 16 at Thu May 30 09:27:37 2024.
