 Gaussian 16, Revision B.01,
 Gaussian 16:  ES64L-G16RevB.01 20-Dec-2017

 ----------------------------------------------
 # nmr=giao hf/sto-3g pop=nbo geom=connectivity
 ----------------------------------------------

 -----------------
 Pleiokomenine_C_2
 -----------------
 Symbolic Z-matrix:
 Charge =  0 Multiplicity = 1

                         Standard orientation:
 ---------------------------------------------------------------------
 Center     Atomic      Atomic             Coordinates (Angstroms)
 Number     Number       Type             X           Y           Z
 ---------------------------------------------------------------------
      1          6           0        1.818737    1.709957   -1.413429
      2          6           0        1.501378    3.069992   -1.527218
      3          6           0        2.373852    4.026794   -0.969569
      4          6           0        3.538375    3.641978   -0.288159
      5          6           0        3.814255    2.293829   -0.135811
      6          6           0        2.954458    1.344275   -0.709910
      7          7           0        4.884015    1.686454    0.575670
      8          6           0        3.503921   -0.035802   -0.454791
      9          6           0        4.358610    0.318114    0.825137
     10          6           0        2.552007   -1.195389   -0.120102
     11          6           0        3.396501    0.356955    2.093594
     12          6           0        2.745463   -1.008877    2.342926
     13          6           0        3.067094   -1.940387    1.158419
     14          7           0        2.482890   -1.990199   -1.350350
     15          6           0        1.937176   -3.331594   -1.188897
     16          6           0        2.460088   -4.109534    0.017641
     17          6           0        2.346510   -3.288405    1.301146
     18          6           0        4.205889   -0.472879   -1.761635
     19          6           0        3.783526   -1.916566   -2.003145
     20          6           0        4.621706   -2.135399    1.193044
     21          6           0        5.382132   -0.779988    1.161798
     22          6           0        6.632284   -0.842569    0.302381
     23          8           0        6.875344   -1.714551   -0.522856
     24          8           0        7.490740    0.164651    0.626219
     25          6           0        8.680693    0.195724   -0.161312
     26          6           0        5.487147    2.468599    1.644079
     27          6           0        0.218695    3.494978   -2.210441
     28          6           0       -1.012402    3.191016   -1.380472
     29          6           0       -1.569263    1.904191   -1.401371
     30          6           0       -1.547891    4.165889   -0.510889
     31          6           0       -2.632985    3.878738    0.329529
     32          6           0       -3.169833    2.605372    0.311482
     33          6           0       -2.612064    1.622850   -0.535573
     34          7           0       -4.269610    2.096233    1.055340
     35          6           0       -3.261669    0.300741   -0.193714
     36          6           0       -4.637488    0.893123    0.266707
     37          6           0       -3.547061   -0.768948   -1.232107
     38          6           0       -5.453031    1.402415   -1.030676
     39          6           0       -5.572398    0.310498   -2.098342
     40          6           0       -5.034719   -1.011639   -1.525428
     41          7           0       -2.882597   -2.035372   -0.717547
     42          6           0       -2.772139   -2.989957   -1.858566
     43          6           0       -4.198137   -3.359890   -2.316517
     44          6           0       -5.127500   -2.149773   -2.571923
     45          6           0       -2.222480   -0.372545    0.751111
     46          6           0       -1.636916   -1.506278   -0.111511
     47          6           0       -5.872629   -1.253919   -0.222395
     48          6           0       -5.595172   -0.159208    0.872447
     49          6           0       -5.293522   -0.781711    2.226557
     50          8           0       -5.835371   -1.804663    2.634448
     51          8           0       -4.498223    0.003880    2.997213
     52          6           0       -4.225559   -0.526608    4.293155
     53          6           0       -5.270457    3.035572    1.524839
     54          8           0       -3.544306   -2.676886    0.297173
     55          1           0        1.193901    0.943615   -1.859301
     56          1           0        2.145378    5.086988   -1.055831
     57          1           0        4.190175    4.401317    0.128103
     58          1           0        1.537618   -0.822508    0.076637
     59          1           0        2.607001    1.110664    1.982539
     60          1           0        3.954273    0.652082    2.991613
     61          1           0        3.116317   -1.434796    3.283703
     62          1           0        1.662727   -0.883004    2.468595
     63          1           0        0.849042   -3.234418   -1.084544
     64          1           0        2.088341   -3.918243   -2.103235
     65          1           0        1.880576   -5.033444    0.129535
     66          1           0        3.498127   -4.415004   -0.152322
     67          1           0        1.283896   -3.122128    1.521126
     68          1           0        2.753971   -3.860220    2.143391
     69          1           0        3.849680    0.115101   -2.620118
     70          1           0        5.286854   -0.340454   -1.760322
     71          1           0        3.700827   -2.122244   -3.075768
     72          1           0        4.511452   -2.618723   -1.593066
     73          1           0        4.953332   -2.810309    0.403799
     74          1           0        4.895867   -2.652392    2.123991
     75          1           0        5.765641   -0.616477    2.180744
     76          1           0        9.278865   -0.703440    0.015658
     77          1           0        8.437373    0.298265   -1.223552
     78          1           0        9.266155    1.067252    0.144360
     79          1           0        4.737502    2.867978    2.336553
     80          1           0        6.060445    3.304125    1.228272
     81          1           0        6.186574    1.858905    2.224114
     82          1           0        0.249131    4.566789   -2.445275
     83          1           0        0.142600    2.991351   -3.183221
     84          1           0       -1.150484    1.131868   -2.036567
     85          1           0       -1.104701    5.158920   -0.471741
     86          1           0       -3.020930    4.645517    0.989793
     87          1           0       -3.014233   -0.522280   -2.162551
     88          1           0       -5.012275    2.294206   -1.492890
     89          1           0       -6.459771    1.721035   -0.726803
     90          1           0       -6.617223    0.210439   -2.416982
     91          1           0       -5.005664    0.607145   -2.990233
     92          1           0       -2.225630   -3.865477   -1.492572
     93          1           0       -2.194358   -2.501512   -2.649942
     94          1           0       -4.138258   -3.969548   -3.225420
     95          1           0       -4.667338   -3.995170   -1.554848
     96          1           0       -4.856075   -1.744319   -3.556229
     97          1           0       -6.163472   -2.498142   -2.663011
     98          1           0       -1.418387    0.279614    1.111664
     99          1           0       -2.693069   -0.802553    1.635368
    100          1           0       -0.988224   -1.152736   -0.918918
    101          1           0       -1.153399   -2.297513    0.468449
    102          1           0       -5.752711   -2.269645    0.161239
    103          1           0       -6.939919   -1.202692   -0.484026
    104          1           0       -6.555131    0.343932    1.066770
    105          1           0       -3.526658    0.148639    4.794523
    106          1           0       -3.756924   -1.512924    4.217043
    107          1           0       -5.144206   -0.576724    4.885728
    108          1           0       -6.091489    2.504668    2.016773
    109          1           0       -4.842199    3.714901    2.269531
    110          1           0       -5.690355    3.632042    0.707796
 ---------------------------------------------------------------------

 SCF Done:  E(RHF) =  -2300.19829070     A.U. after   16 cycles

      1  C    Isotropic =   125.0479   Anisotropy =   150.0384

      2  C    Isotropic =   120.8259   Anisotropy =   156.2694

      3  C    Isotropic =   119.6448   Anisotropy =   149.3128

      4  C    Isotropic =   133.6159   Anisotropy =   142.5847

      5  C    Isotropic =   108.8711   Anisotropy =   127.2432

      6  C    Isotropic =   117.6044   Anisotropy =   139.7449

      7  N    Isotropic =   273.5581   Anisotropy =    81.7065

      8  C    Isotropic =   196.0733   Anisotropy =    14.7359

      9  C    Isotropic =   181.2003   Anisotropy =    45.0035

     10  C    Isotropic =   190.0308   Anisotropy =    27.6808

     11  C    Isotropic =   213.8841   Anisotropy =    18.6960

     12  C    Isotropic =   212.9910   Anisotropy =    19.7328

     13  C    Isotropic =   213.7982   Anisotropy =     8.7599

     14  N    Isotropic =   302.0267   Anisotropy =    52.2816

     15  C    Isotropic =   205.3706   Anisotropy =    33.0110

     16  C    Isotropic =   224.3453   Anisotropy =     7.6768

     17  C    Isotropic =   215.4580   Anisotropy =    18.7143

     18  C    Isotropic =   210.8605   Anisotropy =    36.5186

     19  C    Isotropic =   199.4837   Anisotropy =    44.0462

     20  C    Isotropic =   212.1997   Anisotropy =    22.5027

     21  C    Isotropic =   209.1078   Anisotropy =    11.0442

     22  C    Isotropic =    96.4304   Anisotropy =    98.7396

     23  O    Isotropic =  -134.8898   Anisotropy =   887.6320

     24  O    Isotropic =   283.8283   Anisotropy =   139.9395

     25  C    Isotropic =   197.3427   Anisotropy =    57.8963

     26  C    Isotropic =   209.9075   Anisotropy =    41.5680

     27  C    Isotropic =   206.5063   Anisotropy =    15.0501

     28  C    Isotropic =   119.6883   Anisotropy =   158.1215

     29  C    Isotropic =   127.7519   Anisotropy =   146.9920

     30  C    Isotropic =   119.3176   Anisotropy =   152.9890

     31  C    Isotropic =   133.7258   Anisotropy =   143.3452

     32  C    Isotropic =   108.4959   Anisotropy =   130.0715

     33  C    Isotropic =   117.3471   Anisotropy =   142.5311

     34  N    Isotropic =   272.0576   Anisotropy =    83.8626

     35  C    Isotropic =   200.8314   Anisotropy =    13.5827

     36  C    Isotropic =   178.9548   Anisotropy =    38.6391

     37  C    Isotropic =   183.7752   Anisotropy =    43.4854

     38  C    Isotropic =   210.9291   Anisotropy =    23.6931

     39  C    Isotropic =   212.5615   Anisotropy =    20.4684

     40  C    Isotropic =   211.3922   Anisotropy =    11.5876

     41  N    Isotropic =   235.2555   Anisotropy =    23.6446

     42  C    Isotropic =   193.6760   Anisotropy =    49.2084

     43  C    Isotropic =   219.1433   Anisotropy =    11.9208

     44  C    Isotropic =   214.7133   Anisotropy =    22.4551

     45  C    Isotropic =   206.3941   Anisotropy =    35.7886

     46  C    Isotropic =   190.5694   Anisotropy =    54.5689

     47  C    Isotropic =   211.0917   Anisotropy =    24.1946

     48  C    Isotropic =   207.6096   Anisotropy =    11.3114

     49  C    Isotropic =    98.5226   Anisotropy =   103.5160

     50  O    Isotropic =  -133.1456   Anisotropy =   876.2022

     51  O    Isotropic =   286.4077   Anisotropy =   131.8169

     52  C    Isotropic =   197.6343   Anisotropy =    57.3289

     53  C    Isotropic =   210.7942   Anisotropy =    42.3887

     54  O    Isotropic =    79.3700   Anisotropy =   396.9349

     55  H    Isotropic =    25.7039   Anisotropy =    13.7607

     56  H    Isotropic =    25.7115   Anisotropy =     6.6273

     57  H    Isotropic =    26.6016   Anisotropy =     7.8917

     58  H    Isotropic =    31.9237   Anisotropy =    15.1494

     59  H    Isotropic =    33.3095   Anisotropy =     8.9777

     60  H    Isotropic =    32.3091   Anisotropy =    13.3799

     61  H    Isotropic =    32.4583   Anisotropy =    14.5724

     62  H    Isotropic =    32.8492   Anisotropy =    14.0610

     63  H    Isotropic =    31.9489   Anisotropy =    17.7761

     64  H    Isotropic =    31.8152   Anisotropy =    14.3775

     65  H    Isotropic =    32.6134   Anisotropy =    16.8149

     66  H    Isotropic =    32.5447   Anisotropy =    12.2908

     67  H    Isotropic =    32.7373   Anisotropy =    13.3850

     68  H    Isotropic =    32.4960   Anisotropy =    14.5334

     69  H    Isotropic =    32.3232   Anisotropy =    11.0408

     70  H    Isotropic =    32.9099   Anisotropy =    12.1735

     71  H    Isotropic =    31.8121   Anisotropy =    15.5949

     72  H    Isotropic =    31.9143   Anisotropy =     9.9768

     73  H    Isotropic =    31.4021   Anisotropy =     9.7918

     74  H    Isotropic =    32.2501   Anisotropy =    14.7350

     75  H    Isotropic =    31.2497   Anisotropy =    12.6560

     76  H    Isotropic =    30.5715   Anisotropy =    11.7947

     77  H    Isotropic =    30.6387   Anisotropy =     7.8732

     78  H    Isotropic =    30.5404   Anisotropy =    12.2444

     79  H    Isotropic =    31.9605   Anisotropy =    11.1285

     80  H    Isotropic =    30.7710   Anisotropy =    14.8493

     81  H    Isotropic =    30.9262   Anisotropy =    11.0320

     82  H    Isotropic =    29.8738   Anisotropy =    12.4931

     83  H    Isotropic =    30.0151   Anisotropy =     8.0238

     84  H    Isotropic =    25.8895   Anisotropy =    11.9389

     85  H    Isotropic =    25.7680   Anisotropy =     6.8443

     86  H    Isotropic =    26.5157   Anisotropy =     7.7476

     87  H    Isotropic =    31.5754   Anisotropy =     5.7337

     88  H    Isotropic =    32.9789   Anisotropy =     8.8237

     89  H    Isotropic =    32.0473   Anisotropy =    13.8267

     90  H    Isotropic =    32.1240   Anisotropy =    15.9730

     91  H    Isotropic =    32.7796   Anisotropy =    11.7249

     92  H    Isotropic =    30.7590   Anisotropy =    13.1095

     93  H    Isotropic =    31.7652   Anisotropy =     9.9729

     94  H    Isotropic =    32.2282   Anisotropy =    17.2165

     95  H    Isotropic =    31.0322   Anisotropy =    12.9019

     96  H    Isotropic =    32.5552   Anisotropy =    12.3471

     97  H    Isotropic =    32.0320   Anisotropy =    15.5345

     98  H    Isotropic =    32.7777   Anisotropy =    11.1515

     99  H    Isotropic =    30.6547   Anisotropy =    12.3439

    100  H    Isotropic =    31.1941   Anisotropy =    16.1588

    101  H    Isotropic =    30.8557   Anisotropy =    16.5436

    102  H    Isotropic =    30.0185   Anisotropy =    11.1625

    103  H    Isotropic =    31.6936   Anisotropy =    15.2783

    104  H    Isotropic =    31.3620   Anisotropy =    13.2975

    105  H    Isotropic =    30.6961   Anisotropy =    10.0743

    106  H    Isotropic =    30.5453   Anisotropy =     8.2953

    107  H    Isotropic =    30.5940   Anisotropy =    12.9076

    108  H    Isotropic =    31.2916   Anisotropy =    11.7444

    109  H    Isotropic =    30.6983   Anisotropy =    14.4981

    110  H    Isotropic =    31.8904   Anisotropy =    12.4838

 The electronic state is 1-A.
 Alpha  occ. eigenvalues --  -20.30661 -20.29103 -20.24639 -20.22316 -19.92038
 Alpha  occ. eigenvalues --  -15.48280 -15.33608 -15.33565 -15.30845 -11.16553
 Alpha  occ. eigenvalues --  -11.14748 -11.10574 -11.09674 -11.09478 -11.09477
 Alpha  occ. eigenvalues --  -11.09314 -11.09252 -11.08785 -11.08129 -11.07929
 Alpha  occ. eigenvalues --  -11.07234 -11.07121 -11.06570 -11.06468 -11.06315
 Alpha  occ. eigenvalues --  -11.06250 -11.05902 -11.05783 -11.05691 -11.05633
 Alpha  occ. eigenvalues --  -11.05445 -11.05137 -11.04982 -11.04749 -11.04587
 Alpha  occ. eigenvalues --  -11.04457 -11.04254 -11.04220 -11.04064 -11.03978
 Alpha  occ. eigenvalues --  -11.03913 -11.03791 -11.03784 -11.03187 -11.02366
 Alpha  occ. eigenvalues --  -11.02248 -11.02202 -11.02055 -11.01959 -11.01844
 Alpha  occ. eigenvalues --  -11.01832 -11.01605 -11.01556 -11.01390  -1.37881
 Alpha  occ. eigenvalues --   -1.36183  -1.29740  -1.27687  -1.25473  -1.21499
 Alpha  occ. eigenvalues --   -1.20915  -1.18996  -1.10590  -1.09753  -1.09052
 Alpha  occ. eigenvalues --   -1.07638  -1.05885  -1.05008  -1.02797  -1.00893
 Alpha  occ. eigenvalues --   -0.99230  -0.98831  -0.98528  -0.97497  -0.96878
 Alpha  occ. eigenvalues --   -0.96566  -0.95320  -0.94611  -0.94192  -0.92409
 Alpha  occ. eigenvalues --   -0.91680  -0.91515  -0.90298  -0.89551  -0.88023
 Alpha  occ. eigenvalues --   -0.86504  -0.84872  -0.82964  -0.81970  -0.80996
 Alpha  occ. eigenvalues --   -0.80491  -0.79739  -0.78421  -0.77760  -0.77611
 Alpha  occ. eigenvalues --   -0.77331  -0.74602  -0.74152  -0.72871  -0.72308
 Alpha  occ. eigenvalues --   -0.71387  -0.70319  -0.69474  -0.68587  -0.66014
 Alpha  occ. eigenvalues --   -0.65419  -0.64950  -0.64855  -0.63679  -0.63327
 Alpha  occ. eigenvalues --   -0.62505  -0.62232  -0.61657  -0.61391  -0.61231
 Alpha  occ. eigenvalues --   -0.60668  -0.59847  -0.59475  -0.58855  -0.58575
 Alpha  occ. eigenvalues --   -0.58265  -0.58179  -0.57902  -0.57879  -0.57273
 Alpha  occ. eigenvalues --   -0.56890  -0.56771  -0.56514  -0.55870  -0.55441
 Alpha  occ. eigenvalues --   -0.54889  -0.54828  -0.54730  -0.54612  -0.54574
 Alpha  occ. eigenvalues --   -0.54205  -0.53956  -0.53452  -0.52635  -0.51890
 Alpha  occ. eigenvalues --   -0.51734  -0.51135  -0.51046  -0.50730  -0.50460
 Alpha  occ. eigenvalues --   -0.50034  -0.49682  -0.49530  -0.49132  -0.48667
 Alpha  occ. eigenvalues --   -0.48367  -0.48014  -0.47719  -0.47396  -0.47230
 Alpha  occ. eigenvalues --   -0.46409  -0.46321  -0.46008  -0.45621  -0.45223
 Alpha  occ. eigenvalues --   -0.44940  -0.44863  -0.44524  -0.44415  -0.43955
 Alpha  occ. eigenvalues --   -0.43671  -0.43483  -0.43180  -0.42673  -0.42597
 Alpha  occ. eigenvalues --   -0.42404  -0.41992  -0.41540  -0.41159  -0.40727
 Alpha  occ. eigenvalues --   -0.40637  -0.39954  -0.38821  -0.38529  -0.38203
 Alpha  occ. eigenvalues --   -0.37511  -0.37298  -0.36561  -0.35644  -0.34224
 Alpha  occ. eigenvalues --   -0.33349  -0.33106  -0.32115  -0.31364  -0.30883
 Alpha  occ. eigenvalues --   -0.27412  -0.27183  -0.26371  -0.21327  -0.20389
 Alpha  occ. eigenvalues --   -0.15974  -0.15479
 Alpha virt. eigenvalues --    0.26533   0.26844   0.27371   0.29259   0.30423
 Alpha virt. eigenvalues --    0.32835   0.45549   0.47736   0.48252   0.49155
 Alpha virt. eigenvalues --    0.49310   0.50015   0.50496   0.51725   0.52198

 Mulliken charges:
               1
     1  C   -0.074235
     2  C    0.000507
     3  C   -0.061408
     4  C   -0.089432
     5  C    0.089393
     6  C   -0.012166
     7  N   -0.285802
     8  C    0.017742
     9  C    0.127883
    10  C    0.039901
    11  C   -0.115162
    12  C   -0.105533
    13  C    0.027728
    14  N   -0.291723
    15  C   -0.015651
    16  C   -0.108509
    17  C   -0.102098
    18  C   -0.105908
    19  C   -0.020101
    20  C   -0.110439
    21  C   -0.066447
    22  C    0.319580
    23  O   -0.276922
    24  O   -0.255383
    25  C   -0.055775
    26  C   -0.079376
    27  C   -0.109469
    28  C    0.001886
    29  C   -0.079483
    30  C   -0.061784
    31  C   -0.089743
    32  C    0.093537
    33  C   -0.014059
    34  N   -0.279225
    35  C    0.015492
    36  C    0.135074
    37  C    0.039726
    38  C   -0.116024
    39  C   -0.105446
    40  C    0.040664
    41  N   -0.080628
    42  C   -0.002973
    43  C   -0.097103
    44  C   -0.099021
    45  C   -0.095689
    46  C   -0.005648
    47  C   -0.098972
    48  C   -0.059260
    49  C    0.324601
    50  O   -0.273266
    51  O   -0.255578
    52  C   -0.055672
    53  C   -0.077469
    54  O   -0.461612
    55  H    0.061566
    56  H    0.055925
    57  H    0.058430
    58  H    0.054039
    59  H    0.055193
    60  H    0.051140
    61  H    0.049055
    62  H    0.050852
    63  H    0.050288
    64  H    0.061417
    65  H    0.055434
    66  H    0.051304
    67  H    0.050445
    68  H    0.052923
    69  H    0.062856
    70  H    0.064428
    71  H    0.056647
    72  H    0.051901
    73  H    0.067835
    74  H    0.051918
    75  H    0.065237
    76  H    0.072437
    77  H    0.074729
    78  H    0.077361
    79  H    0.055703
    80  H    0.071867
    81  H    0.076633
    82  H    0.057904
    83  H    0.057821
    84  H    0.053573
    85  H    0.056776
    86  H    0.059988
    87  H    0.054537
    88  H    0.054523
    89  H    0.049743
    90  H    0.053442
    91  H    0.047141
    92  H    0.084466
    93  H    0.056706
    94  H    0.058003
    95  H    0.081976
    96  H    0.046786
    97  H    0.058930
    98  H    0.066062
    99  H    0.092210
   100  H    0.060791
   101  H    0.087746
   102  H    0.101250
   103  H    0.045459
   104  H    0.061673
   105  H    0.073954
   106  H    0.076255
   107  H    0.070260
   108  H    0.071975
   109  H    0.073763
   110  H    0.055203
 Sum of Mulliken charges =  -0.00000

 Dipole moment (field-independent basis, Debye):
    X=              1.9647    Y=              2.3897    Z=             -1.0622  Tot=              3.2709
 Quadrupole moment (field-independent basis, Debye-Ang):
   XX=           -295.7699   YY=           -305.6402   ZZ=           -293.3455
   XY=            -14.6473   XZ=             20.8715   YZ=              9.3873

 Summary of Natural Population Analysis:

                                       Natural Population
                Natural  -----------------------------------------------
    Atom  No    Charge         Core      Valence    Rydberg      Total
 -----------------------------------------------------------------------
      C    1   -0.05596      1.99993     4.05604    0.00000     6.05596
      C    2    0.01420      1.99990     3.98589    0.00000     5.98580
      C    3   -0.03308      1.99994     4.03314    0.00000     6.03308
      C    4   -0.08616      1.99993     4.08623    0.00000     6.08616
      C    5    0.11259      1.99985     3.88756    0.00000     5.88741
      C    6   -0.02370      1.99990     4.02380    0.00000     6.02370
      N    7   -0.27417      1.99998     5.27419    0.00000     7.27417
      C    8    0.01936      1.99996     3.98069    0.00000     5.98064
      C    9    0.17157      1.99996     3.82847    0.00000     5.82843
      C   10    0.07376      1.99993     3.92631    0.00000     5.92624
      C   11   -0.08537      1.99994     4.08543    0.00000     6.08537
      C   12   -0.07391      1.99996     4.07396    0.00000     6.07391
      C   13    0.05000      1.99998     3.95002    0.00000     5.95000
      N   14   -0.27970      1.99999     5.27971    0.00000     7.27970
      C   15    0.03812      1.99993     3.96194    0.00000     5.96188
      C   16   -0.07511      1.99997     4.07514    0.00000     6.07511
      C   17   -0.06851      1.99996     4.06855    0.00000     6.06851
      C   18   -0.07622      1.99995     4.07627    0.00000     6.07622
      C   19    0.03344      1.99994     3.96661    0.00000     5.96656
      C   20   -0.07348      1.99992     4.07356    0.00000     6.07348
      C   21   -0.08439      1.99994     4.08445    0.00000     6.08439
      C   22    0.40282      1.99991     3.59727    0.00000     5.59718
      O   23   -0.31108      1.99999     6.31109    0.00000     8.31108
      O   24   -0.26695      1.99999     6.26696    0.00000     8.26695
      C   25    0.03465      1.99984     3.96551    0.00000     5.96535
      C   26   -0.01683      1.99992     4.01691    0.00000     6.01683
      C   27   -0.08595      1.99995     4.08600    0.00000     6.08595
      C   28    0.01658      1.99990     3.98351    0.00000     5.98342
      C   29   -0.06386      1.99992     4.06394    0.00000     6.06386
      C   30   -0.03353      1.99994     4.03359    0.00000     6.03353
      C   31   -0.08756      1.99993     4.08763    0.00000     6.08756
      C   32    0.11711      1.99985     3.88303    0.00000     5.88289
      C   33   -0.02240      1.99990     4.02250    0.00000     6.02240
      N   34   -0.26912      1.99998     5.26915    0.00000     7.26912
      C   35    0.01104      1.99996     3.98901    0.00000     5.98896
      C   36    0.17930      1.99996     3.82074    0.00000     5.82070
      C   37    0.06868      1.99991     3.93141    0.00000     5.93132
      C   38   -0.08446      1.99993     4.08453    0.00000     6.08446
      C   39   -0.07463      1.99996     4.07467    0.00000     6.07463
      C   40    0.05984      1.99998     3.94018    0.00000     5.94016
      N   41    0.03419      1.99999     4.96583    0.00000     6.96581
      C   42    0.05026      1.99992     3.94982    0.00000     5.94974
      C   43   -0.06332      1.99995     4.06337    0.00000     6.06332
      C   44   -0.06233      1.99994     4.06238    0.00000     6.06233
      C   45   -0.06387      1.99993     4.06394    0.00000     6.06387
      C   46    0.04476      1.99993     3.95531    0.00000     5.95524
      C   47   -0.06105      1.99991     4.06114    0.00000     6.06105
      C   48   -0.07448      1.99994     4.07455    0.00000     6.07448
      C   49    0.40497      1.99991     3.59511    0.00000     5.59503
      O   50   -0.30880      1.99999     6.30881    0.00000     8.30880
      O   51   -0.26669      1.99999     6.26670    0.00000     8.26669
      C   52    0.03476      1.99984     3.96540    0.00000     5.96524
      C   53   -0.01550      1.99993     4.01557    0.00000     6.01550
      O   54   -0.51453      2.00000     6.51453    0.00000     8.51453
      H   55    0.03573      0.00000     0.96427    0.00000     0.96427
      H   56    0.02869      0.00000     0.97131    0.00000     0.97131
      H   57    0.03418      0.00000     0.96582    0.00000     0.96582
      H   58    0.02289      0.00000     0.97711    0.00000     0.97711
      H   59    0.03218      0.00000     0.96782    0.00000     0.96782
      H   60    0.02896      0.00000     0.97104    0.00000     0.97104
      H   61    0.02805      0.00000     0.97195    0.00000     0.97195
      H   62    0.02982      0.00000     0.97018    0.00000     0.97018
      H   63    0.02346      0.00000     0.97654    0.00000     0.97654
      H   64    0.03557      0.00000     0.96443    0.00000     0.96443
      H   65    0.03548      0.00000     0.96452    0.00000     0.96452
      H   66    0.03071      0.00000     0.96929    0.00000     0.96929
      H   67    0.02964      0.00000     0.97036    0.00000     0.97036
      H   68    0.03198      0.00000     0.96802    0.00000     0.96802
      H   69    0.04168      0.00000     0.95832    0.00000     0.95832
      H   70    0.04179      0.00000     0.95821    0.00000     0.95821
      H   71    0.03038      0.00000     0.96962    0.00000     0.96962
      H   72    0.02286      0.00000     0.97714    0.00000     0.97714
      H   73    0.04250      0.00000     0.95750    0.00000     0.95750
      H   74    0.02967      0.00000     0.97033    0.00000     0.97033
      H   75    0.04235      0.00000     0.95765    0.00000     0.95765
      H   76    0.04089      0.00000     0.95911    0.00000     0.95911
      H   77    0.04322      0.00000     0.95678    0.00000     0.95678
      H   78    0.04629      0.00000     0.95371    0.00000     0.95371
      H   79    0.03029      0.00000     0.96971    0.00000     0.96971
      H   80    0.04752      0.00000     0.95248    0.00000     0.95248
      H   81    0.05221      0.00000     0.94779    0.00000     0.94779
      H   82    0.03875      0.00000     0.96125    0.00000     0.96125
      H   83    0.03919      0.00000     0.96081    0.00000     0.96081
      H   84    0.02906      0.00000     0.97094    0.00000     0.97094
      H   85    0.02940      0.00000     0.97060    0.00000     0.97060
      H   86    0.03584      0.00000     0.96416    0.00000     0.96416
      H   87    0.02242      0.00000     0.97758    0.00000     0.97758
      H   88    0.03093      0.00000     0.96907    0.00000     0.96907
      H   89    0.02702      0.00000     0.97298    0.00000     0.97298
      H   90    0.03247      0.00000     0.96753    0.00000     0.96753
      H   91    0.02617      0.00000     0.97383    0.00000     0.97383
      H   92    0.05292      0.00000     0.94708    0.00000     0.94708
      H   93    0.02601      0.00000     0.97399    0.00000     0.97399
      H   94    0.03615      0.00000     0.96385    0.00000     0.96385
      H   95    0.05711      0.00000     0.94289    0.00000     0.94289
      H   96    0.02461      0.00000     0.97539    0.00000     0.97539
      H   97    0.03653      0.00000     0.96347    0.00000     0.96347
      H   98    0.04293      0.00000     0.95707    0.00000     0.95707
      H   99    0.06479      0.00000     0.93521    0.00000     0.93521
      H  100    0.03006      0.00000     0.96994    0.00000     0.96994
      H  101    0.05649      0.00000     0.94351    0.00000     0.94351
      H  102    0.07206      0.00000     0.92794    0.00000     0.92794
      H  103    0.02196      0.00000     0.97804    0.00000     0.97804
      H  104    0.03868      0.00000     0.96132    0.00000     0.96132
      H  105    0.04316      0.00000     0.95684    0.00000     0.95684
      H  106    0.04468      0.00000     0.95532    0.00000     0.95532
      H  107    0.03897      0.00000     0.96103    0.00000     0.96103
      H  108    0.04816      0.00000     0.95184    0.00000     0.95184
      H  109    0.04951      0.00000     0.95049    0.00000     0.95049
      H  110    0.02969      0.00000     0.97031    0.00000     0.97031
 =======================================================================
   * Total *   -0.00000    107.99664   286.00336    0.00000   394.00000

 Normal termination of Gaussian 16 at Thu May 30 09:35:38 2024.
