 Gaussian 16, Revision B.01,
 Gaussian 16:  ES64L-G16RevB.01 20-Dec-2017

 ----------------------------------------------
 # nmr=giao hf/sto-3g pop=nbo geom=connectivity
 ----------------------------------------------

 -----------------
 Pleiokomenine_C_2
 -----------------
 Symbolic Z-matrix:
 Charge =  0 Multiplicity = 1

                         Standard orientation:
 ---------------------------------------------------------------------
 Center     Atomic      Atomic             Coordinates (Angstroms)
 Number     Number       Type             X           Y           Z
 ---------------------------------------------------------------------
      1          6           0       -1.698052    1.858308   -1.519785
      2          6           0       -1.152899    3.147512   -1.449344
      3          6           0       -1.679879    4.069753   -0.521438
      4          6           0       -2.742769    3.724249    0.325368
      5          6           0       -3.268268    2.445925    0.255843
      6          6           0       -2.719002    1.520038   -0.646500
      7          7           0       -4.335091    1.890955    1.011371
      8          6           0       -3.348307    0.172770   -0.399702
      9          6           0       -4.705323    0.691162    0.216969
     10          6           0       -3.645346   -0.775518   -1.568634
     11          6           0       -5.672442    1.121983   -0.969077
     12          6           0       -6.001241   -0.069903   -1.878686
     13          6           0       -5.127795   -1.272859   -1.468506
     14          7           0       -2.606460   -1.808987   -1.483933
     15          6           0       -2.874320   -3.009664   -2.264563
     16          6           0       -4.297311   -3.556799   -2.154955
     17          6           0       -5.337117   -2.465816   -2.411714
     18          6           0       -2.349480   -0.610516    0.489691
     19          6           0       -2.298959   -2.022485   -0.077686
     20          6           0       -5.579800   -1.634733   -0.012146
     21          6           0       -5.476553   -0.420037    0.950247
     22          6           0       -4.967576   -0.816046    2.325004
     23          8           0       -4.380715   -1.859442    2.583973
     24          8           0       -5.317157    0.116868    3.254440
     25          6           0       -4.846790   -0.164700    4.572438
     26          6           0       -5.345651    2.819350    1.494433
     27          6           0        0.057100    3.506323   -2.287462
     28          6           0        1.362965    3.127480   -1.618283
     29          6           0        1.688021    1.776046   -1.435029
     30          6           0        2.249367    4.121067   -1.150056
     31          6           0        3.432968    3.786109   -0.475111
     32          6           0        3.714791    2.451915   -0.246941
     33          6           0        2.845246    1.459103   -0.746403
     34          7           0        4.781589    1.884028    0.505567
     35          6           0        3.444899    0.109031   -0.427178
     36          6           0        4.209714    0.559485    0.864908
     37          6           0        2.592021   -1.092453   -0.055800
     38          6           0        3.144011    0.809567    2.056506
     39          6           0        2.221529   -0.393927    2.265194
     40          6           0        2.721757   -1.562029    1.400320
     41          7           0        2.992483   -2.197957   -1.017679
     42          6           0        1.925188   -3.240305   -0.984167
     43          6           0        1.886797   -3.845109    0.433942
     44          6           0        1.816047   -2.806109    1.577378
     45          6           0        4.120467   -0.315299   -1.761214
     46          6           0        3.210677   -1.446715   -2.277511
     47          6           0        4.214876   -1.772383    1.832209
     48          6           0        5.119584   -0.539340    1.461019
     49          6           0        6.383300   -0.966816    0.732140
     50          8           0        6.991240   -2.002424    0.985889
     51          8           0        6.857293   -0.003718   -0.099568
     52          6           0        8.066298   -0.350876   -0.772741
     53          6           0        5.439374    2.718003    1.494060
     54          8           0        4.185847   -2.814150   -0.742589
     55          1           0       -1.296410    1.113359   -2.199645
     56          1           0       -1.246769    5.064619   -0.440319
     57          1           0       -3.121203    4.451827    1.034102
     58          1           0       -3.510431   -0.263602   -2.531150
     59          1           0       -5.237173    1.924556   -1.577435
     60          1           0       -6.608991    1.534830   -0.572552
     61          1           0       -7.066883   -0.318983   -1.798424
     62          1           0       -5.829269    0.208009   -2.925956
     63          1           0       -2.684429   -2.766384   -3.318055
     64          1           0       -2.152601   -3.796764   -2.013869
     65          1           0       -4.431772   -4.360761   -2.888176
     66          1           0       -4.451127   -4.009577   -1.169502
     67          1           0       -5.252603   -2.135581   -3.455237
     68          1           0       -6.345346   -2.881331   -2.296298
     69          1           0       -1.333947   -0.195227    0.407430
     70          1           0       -2.577015   -0.585537    1.554690
     71          1           0       -1.301362   -2.455599    0.048981
     72          1           0       -3.005920   -2.684449    0.424025
     73          1           0       -5.043788   -2.505289    0.365976
     74          1           0       -6.631350   -1.955542   -0.035337
     75          1           0       -6.508303   -0.082480    1.133647
     76          1           0       -5.309267   -1.079758    4.955082
     77          1           0       -3.755305   -0.246753    4.582667
     78          1           0       -5.136579    0.667222    5.220203
     79          1           0       -5.729953    3.461422    0.693806
     80          1           0       -4.934617    3.454445    2.286461
     81          1           0       -6.193563    2.279277    1.926557
     82          1           0       -0.004337    3.007186   -3.263519
     83          1           0        0.039176    4.580542   -2.511772
     84          1           0        1.040814    0.993262   -1.812794
     85          1           0        2.012965    5.173061   -1.296244
     86          1           0        4.088767    4.570642   -0.116287
     87          1           0        1.538511   -0.876655   -0.288860
     88          1           0        2.521918    1.699374    1.900711
     89          1           0        3.684761    1.015363    2.990682
     90          1           0        2.195787   -0.667081    3.327253
     91          1           0        1.194050   -0.119801    1.992743
     92          1           0        2.187683   -3.991951   -1.735922
     93          1           0        0.979661   -2.761753   -1.259088
     94          1           0        1.033182   -4.528416    0.511442
     95          1           0        2.782962   -4.459427    0.587285
     96          1           0        0.770897   -2.472926    1.638154
     97          1           0        2.031652   -3.299522    2.532621
     98          1           0        4.208286    0.473953   -2.516713
     99          1           0        5.124825   -0.708910   -1.604059
    100          1           0        2.238378   -1.096846   -2.638272
    101          1           0        3.692414   -2.101943   -3.008852
    102          1           0        4.621624   -2.716102    1.461880
    103          1           0        4.244130   -1.891561    2.925487
    104          1           0        5.527934   -0.150676    2.406827
    105          1           0        8.314520    0.460960   -1.461950
    106          1           0        7.935837   -1.268949   -1.354533
    107          1           0        8.885222   -0.458100   -0.054732
    108          1           0        6.186661    2.138597    2.045226
    109          1           0        5.973348    3.541622    1.007996
    110          1           0        4.731944    3.138322    2.216968
 ---------------------------------------------------------------------

 SCF Done:  E(RHF) =  -2300.19846917     A.U. after   16 cycles

      1  C    Isotropic =   124.8788   Anisotropy =   149.2532

      2  C    Isotropic =   119.5385   Anisotropy =   159.3182

      3  C    Isotropic =   119.3748   Anisotropy =   153.9360

      4  C    Isotropic =   133.6644   Anisotropy =   143.3622

      5  C    Isotropic =   109.3081   Anisotropy =   127.7886

      6  C    Isotropic =   117.4587   Anisotropy =   141.8326

      7  N    Isotropic =   274.5007   Anisotropy =    82.2469

      8  C    Isotropic =   196.0272   Anisotropy =    11.8636

      9  C    Isotropic =   181.0987   Anisotropy =    44.8976

     10  C    Isotropic =   190.4238   Anisotropy =    30.2867

     11  C    Isotropic =   213.7890   Anisotropy =    19.7223

     12  C    Isotropic =   212.7589   Anisotropy =    21.4746

     13  C    Isotropic =   213.5426   Anisotropy =     8.7144

     14  N    Isotropic =   301.8311   Anisotropy =    54.6274

     15  C    Isotropic =   205.2139   Anisotropy =    34.3744

     16  C    Isotropic =   224.1850   Anisotropy =     9.0361

     17  C    Isotropic =   215.3447   Anisotropy =    19.5532

     18  C    Isotropic =   210.3635   Anisotropy =    37.8990

     19  C    Isotropic =   199.9666   Anisotropy =    40.5719

     20  C    Isotropic =   212.1397   Anisotropy =    20.8003

     21  C    Isotropic =   209.1128   Anisotropy =     9.4877

     22  C    Isotropic =    96.3522   Anisotropy =    98.3471

     23  O    Isotropic =  -134.2255   Anisotropy =   888.6786

     24  O    Isotropic =   283.5805   Anisotropy =   140.0075

     25  C    Isotropic =   197.3599   Anisotropy =    56.9573

     26  C    Isotropic =   209.9707   Anisotropy =    42.1746

     27  C    Isotropic =   206.5211   Anisotropy =    15.3065

     28  C    Isotropic =   120.9268   Anisotropy =   155.8498

     29  C    Isotropic =   127.9496   Anisotropy =   148.4548

     30  C    Isotropic =   119.5595   Anisotropy =   148.7804

     31  C    Isotropic =   133.5401   Anisotropy =   143.2345

     32  C    Isotropic =   107.8682   Anisotropy =   130.2284

     33  C    Isotropic =   117.6176   Anisotropy =   141.0670

     34  N    Isotropic =   270.9421   Anisotropy =    82.9525

     35  C    Isotropic =   201.2156   Anisotropy =    17.6466

     36  C    Isotropic =   178.8717   Anisotropy =    39.2777

     37  C    Isotropic =   183.5310   Anisotropy =    40.9396

     38  C    Isotropic =   211.0824   Anisotropy =    22.9701

     39  C    Isotropic =   212.9416   Anisotropy =    18.8656

     40  C    Isotropic =   211.6489   Anisotropy =    10.4731

     41  N    Isotropic =   235.5230   Anisotropy =    24.7221

     42  C    Isotropic =   193.7995   Anisotropy =    50.0566

     43  C    Isotropic =   219.3137   Anisotropy =     8.4884

     44  C    Isotropic =   214.9477   Anisotropy =    21.5454

     45  C    Isotropic =   206.7557   Anisotropy =    33.0564

     46  C    Isotropic =   190.6646   Anisotropy =    51.2122

     47  C    Isotropic =   211.1499   Anisotropy =    26.0315

     48  C    Isotropic =   207.6162   Anisotropy =    12.9349

     49  C    Isotropic =    98.4982   Anisotropy =   103.5944

     50  O    Isotropic =  -133.1991   Anisotropy =   875.7381

     51  O    Isotropic =   286.2607   Anisotropy =   132.3664

     52  C    Isotropic =   197.5748   Anisotropy =    58.4073

     53  C    Isotropic =   210.7328   Anisotropy =    41.8882

     54  O    Isotropic =    79.3467   Anisotropy =   399.2346

     55  H    Isotropic =    25.4952   Anisotropy =    13.0030

     56  H    Isotropic =    25.8703   Anisotropy =     6.8122

     57  H    Isotropic =    26.6646   Anisotropy =     7.8807

     58  H    Isotropic =    31.4195   Anisotropy =     8.2860

     59  H    Isotropic =    32.8480   Anisotropy =     9.0219

     60  H    Isotropic =    32.1516   Anisotropy =    14.0484

     61  H    Isotropic =    32.3145   Anisotropy =    15.5840

     62  H    Isotropic =    32.5321   Anisotropy =    13.7037

     63  H    Isotropic =    31.7680   Anisotropy =    13.6725

     64  H    Isotropic =    31.8433   Anisotropy =    14.2457

     65  H    Isotropic =    32.5953   Anisotropy =    17.8957

     66  H    Isotropic =    32.5170   Anisotropy =    10.0881

     67  H    Isotropic =    32.6057   Anisotropy =    13.4181

     68  H    Isotropic =    32.4441   Anisotropy =    15.1736

     69  H    Isotropic =    32.6961   Anisotropy =    16.7683

     70  H    Isotropic =    33.0264   Anisotropy =     8.8959

     71  H    Isotropic =    32.0212   Anisotropy =    19.7152

     72  H    Isotropic =    31.8857   Anisotropy =     7.8045

     73  H    Isotropic =    31.4081   Anisotropy =     8.9252

     74  H    Isotropic =    32.1921   Anisotropy =    15.1254

     75  H    Isotropic =    31.1736   Anisotropy =    12.9145

     76  H    Isotropic =    30.5922   Anisotropy =    11.6017

     77  H    Isotropic =    30.7071   Anisotropy =     7.6119

     78  H    Isotropic =    30.5716   Anisotropy =    12.0830

     79  H    Isotropic =    31.9252   Anisotropy =    12.3430

     80  H    Isotropic =    30.7724   Anisotropy =    14.1755

     81  H    Isotropic =    30.9265   Anisotropy =    10.9417

     82  H    Isotropic =    30.0157   Anisotropy =     8.0928

     83  H    Isotropic =    29.8748   Anisotropy =    12.6129

     84  H    Isotropic =    26.1590   Anisotropy =    13.4107

     85  H    Isotropic =    25.6755   Anisotropy =     6.6234

     86  H    Isotropic =    26.4775   Anisotropy =     7.7196

     87  H    Isotropic =    31.8362   Anisotropy =    11.8763

     88  H    Isotropic =    33.5582   Anisotropy =     8.3035

     89  H    Isotropic =    32.3040   Anisotropy =    12.9568

     90  H    Isotropic =    32.4514   Anisotropy =    14.0765

     91  H    Isotropic =    33.3699   Anisotropy =    15.2033

     92  H    Isotropic =    30.8207   Anisotropy =    13.5052

     93  H    Isotropic =    31.7578   Anisotropy =    14.6182

     94  H    Isotropic =    32.3358   Anisotropy =    15.5062

     95  H    Isotropic =    31.1185   Anisotropy =    14.3118

     96  H    Isotropic =    32.8209   Anisotropy =    14.5452

     97  H    Isotropic =    32.2081   Anisotropy =    14.3714

     98  H    Isotropic =    32.3732   Anisotropy =    10.7772

     99  H    Isotropic =    30.5685   Anisotropy =    14.3997

    100  H    Isotropic =    31.3789   Anisotropy =    10.3601

    101  H    Isotropic =    30.7979   Anisotropy =    14.7482

    102  H    Isotropic =    30.1021   Anisotropy =    11.9688

    103  H    Isotropic =    31.8324   Anisotropy =    14.5480

    104  H    Isotropic =    31.4649   Anisotropy =    12.9150

    105  H    Isotropic =    30.6096   Anisotropy =    11.1279

    106  H    Isotropic =    30.4840   Anisotropy =     9.0614

    107  H    Isotropic =    30.5711   Anisotropy =    12.7316

    108  H    Isotropic =    31.3249   Anisotropy =    11.8231

    109  H    Isotropic =    30.7214   Anisotropy =    15.1086

    110  H    Isotropic =    31.9817   Anisotropy =    11.2871

 The electronic state is 1-A.
 Alpha  occ. eigenvalues --  -20.30913 -20.28884 -20.24900 -20.22105 -19.91741
 Alpha  occ. eigenvalues --  -15.47980 -15.33841 -15.33377 -15.31184 -11.16819
 Alpha  occ. eigenvalues --  -11.14533 -11.10798 -11.09767 -11.09344 -11.09233
 Alpha  occ. eigenvalues --  -11.09056 -11.09027 -11.08471 -11.08197 -11.07915
 Alpha  occ. eigenvalues --  -11.07520 -11.07366 -11.06756 -11.06720 -11.06304
 Alpha  occ. eigenvalues --  -11.06111 -11.06038 -11.05850 -11.05754 -11.05741
 Alpha  occ. eigenvalues --  -11.05476 -11.04876 -11.04748 -11.04726 -11.04613
 Alpha  occ. eigenvalues --  -11.04562 -11.04463 -11.04362 -11.04312 -11.04270
 Alpha  occ. eigenvalues --  -11.04248 -11.03923 -11.03496 -11.02955 -11.02334
 Alpha  occ. eigenvalues --  -11.02296 -11.02076 -11.02060 -11.01988 -11.01897
 Alpha  occ. eigenvalues --  -11.01876 -11.01786 -11.01627 -11.01456  -1.38133
 Alpha  occ. eigenvalues --   -1.35965  -1.29434  -1.27956  -1.25260  -1.21807
 Alpha  occ. eigenvalues --   -1.20696  -1.19332  -1.10320  -1.10034  -1.09061
 Alpha  occ. eigenvalues --   -1.07687  -1.05732  -1.05254  -1.02559  -1.01086
 Alpha  occ. eigenvalues --   -0.99339  -0.98648  -0.98590  -0.97443  -0.97184
 Alpha  occ. eigenvalues --   -0.96287  -0.95035  -0.94957  -0.94202  -0.92473
 Alpha  occ. eigenvalues --   -0.91910  -0.91573  -0.90087  -0.89551  -0.88008
 Alpha  occ. eigenvalues --   -0.86514  -0.84928  -0.82990  -0.82273  -0.80743
 Alpha  occ. eigenvalues --   -0.80280  -0.80008  -0.78158  -0.78113  -0.77689
 Alpha  occ. eigenvalues --   -0.77324  -0.74535  -0.74244  -0.72751  -0.72395
 Alpha  occ. eigenvalues --   -0.71514  -0.70332  -0.69762  -0.68341  -0.66296
 Alpha  occ. eigenvalues --   -0.65314  -0.65122  -0.64700  -0.63887  -0.63058
 Alpha  occ. eigenvalues --   -0.62570  -0.62159  -0.61592  -0.61435  -0.61122
 Alpha  occ. eigenvalues --   -0.60972  -0.60142  -0.59248  -0.59039  -0.58612
 Alpha  occ. eigenvalues --   -0.58393  -0.58195  -0.57812  -0.57651  -0.57387
 Alpha  occ. eigenvalues --   -0.57105  -0.56706  -0.56326  -0.56027  -0.55587
 Alpha  occ. eigenvalues --   -0.55063  -0.54888  -0.54575  -0.54481  -0.54336
 Alpha  occ. eigenvalues --   -0.54195  -0.54033  -0.53528  -0.52786  -0.52090
 Alpha  occ. eigenvalues --   -0.51646  -0.51259  -0.51000  -0.50610  -0.50395
 Alpha  occ. eigenvalues --   -0.50182  -0.49894  -0.49361  -0.49138  -0.48642
 Alpha  occ. eigenvalues --   -0.48376  -0.48202  -0.47952  -0.47340  -0.47029
 Alpha  occ. eigenvalues --   -0.46602  -0.46333  -0.45909  -0.45802  -0.45236
 Alpha  occ. eigenvalues --   -0.45131  -0.44826  -0.44616  -0.44449  -0.44015
 Alpha  occ. eigenvalues --   -0.43841  -0.43256  -0.43036  -0.42890  -0.42700
 Alpha  occ. eigenvalues --   -0.42362  -0.42009  -0.41670  -0.41292  -0.40966
 Alpha  occ. eigenvalues --   -0.40533  -0.39712  -0.38829  -0.38579  -0.37943
 Alpha  occ. eigenvalues --   -0.37769  -0.37056  -0.36821  -0.35426  -0.34469
 Alpha  occ. eigenvalues --   -0.33615  -0.32902  -0.32382  -0.31153  -0.30656
 Alpha  occ. eigenvalues --   -0.27633  -0.27123  -0.26652  -0.21409  -0.20411
 Alpha  occ. eigenvalues --   -0.15681  -0.15184
 Alpha virt. eigenvalues --    0.26528   0.26794   0.27382   0.29143   0.30141
 Alpha virt. eigenvalues --    0.33039   0.45825   0.47883   0.47921   0.49164
 Alpha virt. eigenvalues --    0.49393   0.49979   0.50464   0.51899   0.52007

 Mulliken charges:
               1
     1  C   -0.075214
     2  C    0.000774
     3  C   -0.061805
     4  C   -0.089048
     5  C    0.089011
     6  C   -0.013589
     7  N   -0.286751
     8  C    0.017872
     9  C    0.128199
    10  C    0.039534
    11  C   -0.114904
    12  C   -0.105512
    13  C    0.028034
    14  N   -0.291728
    15  C   -0.015912
    16  C   -0.108227
    17  C   -0.102096
    18  C   -0.104748
    19  C   -0.021012
    20  C   -0.110626
    21  C   -0.066604
    22  C    0.319828
    23  O   -0.277354
    24  O   -0.255258
    25  C   -0.055857
    26  C   -0.079028
    27  C   -0.109541
    28  C    0.001623
    29  C   -0.079168
    30  C   -0.061653
    31  C   -0.090151
    32  C    0.093535
    33  C   -0.012761
    34  N   -0.278494
    35  C    0.015309
    36  C    0.134620
    37  C    0.039672
    38  C   -0.116320
    39  C   -0.105468
    40  C    0.040675
    41  N   -0.080636
    42  C   -0.004201
    43  C   -0.097291
    44  C   -0.099240
    45  C   -0.095664
    46  C   -0.004462
    47  C   -0.098846
    48  C   -0.059374
    49  C    0.324424
    50  O   -0.273388
    51  O   -0.255612
    52  C   -0.055681
    53  C   -0.077978
    54  O   -0.461624
    55  H    0.061491
    56  H    0.056922
    57  H    0.058823
    58  H    0.056645
    59  H    0.054850
    60  H    0.051298
    61  H    0.048997
    62  H    0.050784
    63  H    0.053890
    64  H    0.060133
    65  H    0.054887
    66  H    0.051097
    67  H    0.050535
    68  H    0.052228
    69  H    0.059497
    70  H    0.064867
    71  H    0.052576
    72  H    0.054112
    73  H    0.067488
    74  H    0.051974
    75  H    0.065469
    76  H    0.072734
    77  H    0.074563
    78  H    0.077656
    79  H    0.055692
    80  H    0.072161
    81  H    0.076522
    82  H    0.058192
    83  H    0.058024
    84  H    0.055361
    85  H    0.056009
    86  H    0.059698
    87  H    0.055798
    88  H    0.055375
    89  H    0.049160
    90  H    0.053022
    91  H    0.048052
    92  H    0.084109
    93  H    0.059092
    94  H    0.057387
    95  H    0.081619
    96  H    0.047575
    97  H    0.058867
    98  H    0.066232
    99  H    0.092244
   100  H    0.057590
   101  H    0.089397
   102  H    0.101249
   103  H    0.045126
   104  H    0.061529
   105  H    0.074109
   106  H    0.076530
   107  H    0.069922
   108  H    0.072011
   109  H    0.073495
   110  H    0.055041
 Sum of Mulliken charges =  -0.00000

 Dipole moment (field-independent basis, Debye):
    X=             -5.8534    Y=              2.6118    Z=              0.1978  Tot=              6.4127
 Quadrupole moment (field-independent basis, Debye-Ang):
   XX=           -304.9244   YY=           -307.7328   ZZ=           -289.0016
   XY=             20.8724   XZ=              0.6482   YZ=              7.3947

 Summary of Natural Population Analysis:

                                       Natural Population
                Natural  -----------------------------------------------
    Atom  No    Charge         Core      Valence    Rydberg      Total
 -----------------------------------------------------------------------
      C    1   -0.05711      1.99992     4.05719    0.00000     6.05711
      C    2    0.01488      1.99990     3.98522    0.00000     5.98512
      C    3   -0.03357      1.99994     4.03362    0.00000     6.03357
      C    4   -0.08564      1.99993     4.08571    0.00000     6.08564
      C    5    0.11181      1.99985     3.88833    0.00000     5.88819
      C    6   -0.02483      1.99990     4.02493    0.00000     6.02483
      N    7   -0.27512      1.99998     5.27514    0.00000     7.27512
      C    8    0.01947      1.99996     3.98058    0.00000     5.98053
      C    9    0.17148      1.99996     3.82856    0.00000     5.82852
      C   10    0.07318      1.99993     3.92689    0.00000     5.92682
      C   11   -0.08518      1.99994     4.08524    0.00000     6.08518
      C   12   -0.07348      1.99996     4.07352    0.00000     6.07348
      C   13    0.05045      1.99998     3.94957    0.00000     5.94955
      N   14   -0.27957      1.99999     5.27958    0.00000     7.27957
      C   15    0.03776      1.99994     3.96231    0.00000     5.96224
      C   16   -0.07462      1.99997     4.07465    0.00000     6.07462
      C   17   -0.06849      1.99996     4.06853    0.00000     6.06849
      C   18   -0.07437      1.99995     4.07442    0.00000     6.07437
      C   19    0.03216      1.99994     3.96790    0.00000     5.96784
      C   20   -0.07384      1.99992     4.07392    0.00000     6.07384
      C   21   -0.08456      1.99994     4.08462    0.00000     6.08456
      C   22    0.40316      1.99991     3.59693    0.00000     5.59684
      O   23   -0.31154      1.99999     6.31155    0.00000     8.31154
      O   24   -0.26684      1.99999     6.26685    0.00000     8.26684
      C   25    0.03458      1.99984     3.96558    0.00000     5.96542
      C   26   -0.01636      1.99992     4.01644    0.00000     6.01636
      C   27   -0.08601      1.99995     4.08605    0.00000     6.08601
      C   28    0.01613      1.99990     3.98396    0.00000     5.98387
      C   29   -0.06352      1.99992     4.06360    0.00000     6.06352
      C   30   -0.03337      1.99994     4.03342    0.00000     6.03337
      C   31   -0.08802      1.99993     4.08809    0.00000     6.08802
      C   32    0.11765      1.99985     3.88250    0.00000     5.88235
      C   33   -0.02138      1.99990     4.02148    0.00000     6.02138
      N   34   -0.26851      1.99998     5.26853    0.00000     7.26851
      C   35    0.01048      1.99996     3.98956    0.00000     5.98952
      C   36    0.17946      1.99996     3.82059    0.00000     5.82054
      C   37    0.06864      1.99991     3.93145    0.00000     5.93136
      C   38   -0.08458      1.99993     4.08466    0.00000     6.08458
      C   39   -0.07501      1.99996     4.07505    0.00000     6.07501
      C   40    0.05982      1.99998     3.94020    0.00000     5.94018
      N   41    0.03410      1.99999     4.96591    0.00000     6.96590
      C   42    0.04905      1.99992     3.95104    0.00000     5.95095
      C   43   -0.06354      1.99995     4.06359    0.00000     6.06354
      C   44   -0.06255      1.99994     4.06261    0.00000     6.06255
      C   45   -0.06411      1.99993     4.06418    0.00000     6.06411
      C   46    0.04606      1.99993     3.95400    0.00000     5.95394
      C   47   -0.06068      1.99991     4.06077    0.00000     6.06068
      C   48   -0.07479      1.99994     4.07485    0.00000     6.07479
      C   49    0.40483      1.99991     3.59526    0.00000     5.59517
      O   50   -0.30890      1.99999     6.30892    0.00000     8.30890
      O   51   -0.26672      1.99999     6.26673    0.00000     8.26672
      C   52    0.03475      1.99984     3.96541    0.00000     5.96525
      C   53   -0.01617      1.99993     4.01624    0.00000     6.01617
      O   54   -0.51452      2.00000     6.51452    0.00000     8.51452
      H   55    0.03592      0.00000     0.96408    0.00000     0.96408
      H   56    0.02960      0.00000     0.97040    0.00000     0.97040
      H   57    0.03460      0.00000     0.96540    0.00000     0.96540
      H   58    0.02539      0.00000     0.97461    0.00000     0.97461
      H   59    0.03190      0.00000     0.96810    0.00000     0.96810
      H   60    0.02913      0.00000     0.97087    0.00000     0.97087
      H   61    0.02791      0.00000     0.97209    0.00000     0.97209
      H   62    0.02963      0.00000     0.97037    0.00000     0.97037
      H   63    0.02681      0.00000     0.97319    0.00000     0.97319
      H   64    0.03439      0.00000     0.96561    0.00000     0.96561
      H   65    0.03493      0.00000     0.96507    0.00000     0.96507
      H   66    0.03044      0.00000     0.96956    0.00000     0.96956
      H   67    0.02970      0.00000     0.97030    0.00000     0.97030
      H   68    0.03130      0.00000     0.96870    0.00000     0.96870
      H   69    0.03848      0.00000     0.96152    0.00000     0.96152
      H   70    0.04201      0.00000     0.95799    0.00000     0.95799
      H   71    0.02677      0.00000     0.97323    0.00000     0.97323
      H   72    0.02490      0.00000     0.97510    0.00000     0.97510
      H   73    0.04225      0.00000     0.95775    0.00000     0.95775
      H   74    0.02977      0.00000     0.97023    0.00000     0.97023
      H   75    0.04257      0.00000     0.95743    0.00000     0.95743
      H   76    0.04116      0.00000     0.95884    0.00000     0.95884
      H   77    0.04308      0.00000     0.95692    0.00000     0.95692
      H   78    0.04655      0.00000     0.95345    0.00000     0.95345
      H   79    0.03025      0.00000     0.96975    0.00000     0.96975
      H   80    0.04776      0.00000     0.95224    0.00000     0.95224
      H   81    0.05210      0.00000     0.94790    0.00000     0.94790
      H   82    0.03952      0.00000     0.96048    0.00000     0.96048
      H   83    0.03884      0.00000     0.96116    0.00000     0.96116
      H   84    0.03050      0.00000     0.96950    0.00000     0.96950
      H   85    0.02871      0.00000     0.97129    0.00000     0.97129
      H   86    0.03552      0.00000     0.96448    0.00000     0.96448
      H   87    0.02353      0.00000     0.97647    0.00000     0.97647
      H   88    0.03162      0.00000     0.96838    0.00000     0.96838
      H   89    0.02643      0.00000     0.97357    0.00000     0.97357
      H   90    0.03216      0.00000     0.96784    0.00000     0.96784
      H   91    0.02708      0.00000     0.97292    0.00000     0.97292
      H   92    0.05262      0.00000     0.94738    0.00000     0.94738
      H   93    0.02820      0.00000     0.97180    0.00000     0.97180
      H   94    0.03564      0.00000     0.96436    0.00000     0.96436
      H   95    0.05684      0.00000     0.94316    0.00000     0.94316
      H   96    0.02533      0.00000     0.97467    0.00000     0.97467
      H   97    0.03647      0.00000     0.96353    0.00000     0.96353
      H   98    0.04317      0.00000     0.95683    0.00000     0.95683
      H   99    0.06494      0.00000     0.93506    0.00000     0.93506
      H  100    0.02711      0.00000     0.97289    0.00000     0.97289
      H  101    0.05790      0.00000     0.94210    0.00000     0.94210
      H  102    0.07200      0.00000     0.92800    0.00000     0.92800
      H  103    0.02161      0.00000     0.97839    0.00000     0.97839
      H  104    0.03855      0.00000     0.96145    0.00000     0.96145
      H  105    0.04329      0.00000     0.95671    0.00000     0.95671
      H  106    0.04495      0.00000     0.95505    0.00000     0.95505
      H  107    0.03867      0.00000     0.96133    0.00000     0.96133
      H  108    0.04818      0.00000     0.95182    0.00000     0.95182
      H  109    0.04933      0.00000     0.95067    0.00000     0.95067
      H  110    0.02956      0.00000     0.97044    0.00000     0.97044
 =======================================================================
   * Total *   -0.00000    107.99664   286.00336    0.00000   394.00000

 Normal termination of Gaussian 16 at Thu May 30 10:13:05 2024.
