 Gaussian 16, Revision B.01,
 Gaussian 16:  ES64L-G16RevB.01 20-Dec-2017

 ----------------------------------------------
 # nmr=giao hf/sto-3g pop=nbo geom=connectivity
 ----------------------------------------------

 -----------------
 Pleiokomenine_C_2
 -----------------
 Symbolic Z-matrix:
 Charge =  0 Multiplicity = 1

                         Standard orientation:
 ---------------------------------------------------------------------
 Center     Atomic      Atomic             Coordinates (Angstroms)
 Number     Number       Type             X           Y           Z
 ---------------------------------------------------------------------
      1          6           0       -1.857123    2.123501   -1.078314
      2          6           0       -1.156377    3.254447   -0.637723
      3          6           0       -1.422126    3.779179    0.644644
      4          6           0       -2.379785    3.196543    1.485010
      5          6           0       -3.067978    2.079903    1.044036
      6          6           0       -2.780916    1.542689   -0.223012
      7          7           0       -4.076273    1.345446    1.723862
      8          6           0       -3.550049    0.255830   -0.386515
      9          6           0       -4.719287    0.585257    0.621476
     10          6           0       -4.144899   -0.130974   -1.747150
     11          6           0       -5.778886    1.516710   -0.112189
     12          6           0       -6.400097    0.805708   -1.322068
     13          6           0       -5.651705   -0.520257   -1.565097
     14          7           0       -3.262305   -1.187434   -2.251268
     15          6           0       -3.801732   -1.958946   -3.362737
     16          6           0       -5.256043   -2.401718   -3.202903
     17          6           0       -6.159976   -1.226648   -2.829978
     18          6           0       -2.552332   -0.884282   -0.060905
     19          6           0       -2.781975   -1.958442   -1.115652
     20          6           0       -5.932144   -1.393882   -0.294646
     21          6           0       -5.523495   -0.666186    1.014827
     22          6           0       -4.881954   -1.605219    2.020925
     23          8           0       -4.403549   -2.701170    1.755887
     24          8           0       -4.973263   -1.094626    3.280994
     25          6           0       -4.367625   -1.905695    4.287378
     26          6           0       -4.870246    2.076783    2.699872
     27          6           0       -0.055231    3.848397   -1.492318
     28          6           0        1.333818    3.377377   -1.108151
     29          6           0        1.606790    2.009681   -0.959021
     30          6           0        2.380603    4.311071   -0.941905
     31          6           0        3.676596    3.905652   -0.588940
     32          6           0        3.922485    2.560225   -0.393142
     33          6           0        2.886464    1.623710   -0.599803
     34          7           0        5.117233    1.929476    0.049379
     35          6           0        3.473070    0.240818   -0.431441
     36          6           0        4.593115    0.651393    0.587949
     37          6           0        2.696425   -0.908691    0.186366
     38          6           0        3.922612    0.977202    2.021404
     39          6           0        3.014665   -0.158364    2.500838
     40          6           0        3.191118   -1.365436    1.566033
     41          7           0        2.772738   -2.048758   -0.817147
     42          6           0        1.706542   -3.033671   -0.468279
     43          6           0        2.021158   -3.612898    0.925943
     44          6           0        2.301300   -2.550887    2.014897
     45          6           0        3.726351   -0.228518   -1.893112
     46          6           0        2.668482   -1.325982   -2.108992
     47          6           0        4.729895   -1.664491    1.579521
     48          6           0        5.566795   -0.500082    0.927514
     49          6           0        6.514410   -0.946655   -0.175770
     50          8           0        6.875042   -0.262972   -1.125017
     51          8           0        7.051739   -2.167118    0.120675
     52          6           0        7.905514   -2.687199   -0.896604
     53          6           0        6.094303    2.720500    0.770338
     54          8           0        3.968260   -2.724154   -0.857684
     55          1           0       -1.645158    1.672489   -2.043846
     56          1           0       -0.862112    4.640913    1.002868
     57          1           0       -2.555370    3.616488    2.468613
     58          1           0       -4.080389    0.707379   -2.454168
     59          1           0       -6.580862    1.807488    0.578525
     60          1           0       -5.328686    2.459829   -0.446354
     61          1           0       -7.466615    0.621618   -1.141047
     62          1           0       -6.346478    1.460121   -2.200936
     63          1           0       -3.734134   -1.333176   -4.262205
     64          1           0       -3.167778   -2.830499   -3.566866
     65          1           0       -5.605482   -2.838932   -4.145642
     66          1           0       -5.326898   -3.194513   -2.450364
     67          1           0       -6.183037   -0.518681   -3.668687
     68          1           0       -7.188573   -1.580661   -2.691710
     69          1           0       -1.511621   -0.544459   -0.169927
     70          1           0       -2.617094   -1.263929    0.958075
     71          1           0       -1.845426   -2.474487   -1.353101
     72          1           0       -3.491149   -2.713615   -0.774418
     73          1           0       -5.471314   -2.378212   -0.378320
     74          1           0       -7.009855   -1.605213   -0.238702
     75          1           0       -6.461410   -0.354184    1.499869
     76          1           0       -3.305026   -2.056730    4.072287
     77          1           0       -4.888237   -2.864844    4.368789
     78          1           0       -4.455400   -1.381376    5.242891
     79          1           0       -5.276265    3.006713    2.286023
     80          1           0       -4.265555    2.319144    3.580305
     81          1           0       -5.711738    1.470223    3.048215
     82          1           0       -0.225732    3.607253   -2.549536
     83          1           0       -0.119903    4.942025   -1.422882
     84          1           0        0.835410    1.266213   -1.124967
     85          1           0        2.189523    5.373028   -1.083171
     86          1           0        4.457540    4.645866   -0.460074
     87          1           0        1.630473   -0.640608    0.237394
     88          1           0        3.344549    1.909339    2.027570
     89          1           0        4.715892    1.143628    2.763407
     90          1           0        3.256405   -0.418772    3.538680
     91          1           0        1.971151    0.182093    2.503448
     92          1           0        1.722217   -3.809755   -1.240532
     93          1           0        0.745088   -2.510557   -0.493105
     94          1           0        2.898517   -4.267888    0.854274
     95          1           0        1.190287   -4.251524    1.247138
     96          1           0        2.734120   -3.037896    2.896930
     97          1           0        1.326038   -2.157200    2.332806
     98          1           0        3.623980    0.547721   -2.660371
     99          1           0        4.718353   -0.660254   -2.021645
    100          1           0        2.904763   -2.013793   -2.925887
    101          1           0        1.649159   -0.937383   -2.199722
    102          1           0        4.955065   -2.644583    1.154877
    103          1           0        5.052604   -1.760066    2.626918
    104          1           0        6.262072   -0.141786    1.702190
    105          1           0        8.813210   -2.081199   -0.977270
    106          1           0        8.192031   -3.703299   -0.611630
    107          1           0        7.382391   -2.733867   -1.857194
    108          1           0        6.931803    2.093169    1.090912
    109          1           0        6.511964    3.500215    0.124528
    110          1           0        5.663932    3.195460    1.658503
 ---------------------------------------------------------------------

 SCF Done:  E(RHF) =  -2300.20262606     A.U. after   16 cycles

      1  C    Isotropic =   123.9298   Anisotropy =   149.3363

      2  C    Isotropic =   119.0365   Anisotropy =   162.4673

      3  C    Isotropic =   119.1216   Anisotropy =   156.9956

      4  C    Isotropic =   133.6713   Anisotropy =   144.3398

      5  C    Isotropic =   109.1171   Anisotropy =   128.4145

      6  C    Isotropic =   117.3241   Anisotropy =   142.2827

      7  N    Isotropic =   274.3625   Anisotropy =    82.2112

      8  C    Isotropic =   195.9008   Anisotropy =    11.6641

      9  C    Isotropic =   181.1073   Anisotropy =    44.8037

     10  C    Isotropic =   190.4079   Anisotropy =    29.4294

     11  C    Isotropic =   213.7576   Anisotropy =    19.9830

     12  C    Isotropic =   212.7959   Anisotropy =    21.2120

     13  C    Isotropic =   213.5619   Anisotropy =     9.0558

     14  N    Isotropic =   302.3401   Anisotropy =    54.0393

     15  C    Isotropic =   205.2006   Anisotropy =    35.1829

     16  C    Isotropic =   224.1761   Anisotropy =     8.6395

     17  C    Isotropic =   215.3161   Anisotropy =    19.8864

     18  C    Isotropic =   210.2720   Anisotropy =    37.2767

     19  C    Isotropic =   199.9226   Anisotropy =    41.9395

     20  C    Isotropic =   212.1348   Anisotropy =    20.9063

     21  C    Isotropic =   209.0802   Anisotropy =     9.6941

     22  C    Isotropic =    96.2176   Anisotropy =    98.5019

     23  O    Isotropic =  -134.1861   Anisotropy =   888.7120

     24  O    Isotropic =   283.4524   Anisotropy =   139.9213

     25  C    Isotropic =   197.3514   Anisotropy =    56.8322

     26  C    Isotropic =   209.9268   Anisotropy =    41.8768

     27  C    Isotropic =   206.5352   Anisotropy =    18.5145

     28  C    Isotropic =   120.6422   Anisotropy =   156.3462

     29  C    Isotropic =   128.0869   Anisotropy =   149.4891

     30  C    Isotropic =   119.2036   Anisotropy =   148.9840

     31  C    Isotropic =   133.8159   Anisotropy =   142.8105

     32  C    Isotropic =   108.3955   Anisotropy =   129.6244

     33  C    Isotropic =   117.9294   Anisotropy =   140.1650

     34  N    Isotropic =   272.7442   Anisotropy =    84.7895

     35  C    Isotropic =   201.1192   Anisotropy =    16.9827

     36  C    Isotropic =   179.3535   Anisotropy =    40.3763

     37  C    Isotropic =   183.6879   Anisotropy =    41.4754

     38  C    Isotropic =   211.1730   Anisotropy =    22.8486

     39  C    Isotropic =   213.0830   Anisotropy =    19.2055

     40  C    Isotropic =   211.7355   Anisotropy =    10.4353

     41  N    Isotropic =   235.4134   Anisotropy =    25.5995

     42  C    Isotropic =   193.8482   Anisotropy =    49.6477

     43  C    Isotropic =   219.3940   Anisotropy =     9.2763

     44  C    Isotropic =   214.9764   Anisotropy =    21.6903

     45  C    Isotropic =   207.2810   Anisotropy =    33.9299

     46  C    Isotropic =   190.8389   Anisotropy =    50.9013

     47  C    Isotropic =   211.7841   Anisotropy =    26.4395

     48  C    Isotropic =   207.2632   Anisotropy =    17.3462

     49  C    Isotropic =    98.2745   Anisotropy =    97.0824

     50  O    Isotropic =  -132.8935   Anisotropy =   879.2834

     51  O    Isotropic =   285.8851   Anisotropy =   142.4133

     52  C    Isotropic =   197.4897   Anisotropy =    57.0534

     53  C    Isotropic =   211.0758   Anisotropy =    42.1369

     54  O    Isotropic =    74.1324   Anisotropy =   408.8789

     55  H    Isotropic =    25.5104   Anisotropy =    13.0995

     56  H    Isotropic =    26.0611   Anisotropy =     7.0041

     57  H    Isotropic =    26.6788   Anisotropy =     7.7308

     58  H    Isotropic =    31.4244   Anisotropy =     8.6936

     59  H    Isotropic =    32.1490   Anisotropy =    13.7793

     60  H    Isotropic =    32.8556   Anisotropy =     9.0916

     61  H    Isotropic =    32.3205   Anisotropy =    15.4671

     62  H    Isotropic =    32.5364   Anisotropy =    13.8809

     63  H    Isotropic =    31.7637   Anisotropy =    14.3986

     64  H    Isotropic =    31.7915   Anisotropy =    14.4833

     65  H    Isotropic =    32.6028   Anisotropy =    18.1241

     66  H    Isotropic =    32.5206   Anisotropy =    10.2770

     67  H    Isotropic =    32.6088   Anisotropy =    13.6010

     68  H    Isotropic =    32.4517   Anisotropy =    15.0323

     69  H    Isotropic =    32.5208   Anisotropy =    17.1487

     70  H    Isotropic =    32.9380   Anisotropy =     8.7858

     71  H    Isotropic =    31.9440   Anisotropy =    16.8446

     72  H    Isotropic =    31.8495   Anisotropy =     8.0732

     73  H    Isotropic =    31.3999   Anisotropy =     9.0180

     74  H    Isotropic =    32.1884   Anisotropy =    15.0423

     75  H    Isotropic =    31.1482   Anisotropy =    12.6230

     76  H    Isotropic =    30.6741   Anisotropy =     8.1179

     77  H    Isotropic =    30.5704   Anisotropy =    11.5670

     78  H    Isotropic =    30.5480   Anisotropy =    11.8217

     79  H    Isotropic =    31.9137   Anisotropy =    12.2536

     80  H    Isotropic =    30.7784   Anisotropy =    13.8426

     81  H    Isotropic =    30.9095   Anisotropy =    10.8213

     82  H    Isotropic =    30.1501   Anisotropy =     8.6096

     83  H    Isotropic =    29.8781   Anisotropy =    12.5496

     84  H    Isotropic =    26.8683   Anisotropy =    15.8515

     85  H    Isotropic =    25.6834   Anisotropy =     6.7709

     86  H    Isotropic =    26.4867   Anisotropy =     7.4417

     87  H    Isotropic =    32.1948   Anisotropy =    11.7254

     88  H    Isotropic =    33.4242   Anisotropy =     8.3264

     89  H    Isotropic =    32.2619   Anisotropy =    13.3493

     90  H    Isotropic =    32.4305   Anisotropy =    14.7635

     91  H    Isotropic =    33.3624   Anisotropy =    13.1828

     92  H    Isotropic =    30.9083   Anisotropy =    13.0567

     93  H    Isotropic =    32.1595   Anisotropy =    15.9726

     94  H    Isotropic =    31.1425   Anisotropy =    13.8233

     95  H    Isotropic =    32.4169   Anisotropy =    16.0369

     96  H    Isotropic =    32.2459   Anisotropy =    14.7502

     97  H    Isotropic =    32.9372   Anisotropy =    12.8063

     98  H    Isotropic =    32.6665   Anisotropy =    10.5200

     99  H    Isotropic =    31.3247   Anisotropy =    12.6027

    100  H    Isotropic =    30.9531   Anisotropy =    14.1431

    101  H    Isotropic =    31.6315   Anisotropy =    12.2709

    102  H    Isotropic =    29.9160   Anisotropy =    11.2619

    103  H    Isotropic =    31.8683   Anisotropy =    14.4541

    104  H    Isotropic =    31.4584   Anisotropy =    13.0447

    105  H    Isotropic =    30.6011   Anisotropy =    11.7892

    106  H    Isotropic =    30.6461   Anisotropy =    12.4986

    107  H    Isotropic =    30.5671   Anisotropy =     7.2314

    108  H    Isotropic =    31.5245   Anisotropy =    12.1035

    109  H    Isotropic =    30.7978   Anisotropy =    15.1686

    110  H    Isotropic =    31.9978   Anisotropy =    11.5564

 The electronic state is 1-A.
 Alpha  occ. eigenvalues --  -20.30952 -20.28398 -20.24930 -20.22415 -19.91951
 Alpha  occ. eigenvalues --  -15.47973 -15.33839 -15.33254 -15.30994 -11.16849
 Alpha  occ. eigenvalues --  -11.14628 -11.10864 -11.09740 -11.09477 -11.09152
 Alpha  occ. eigenvalues --  -11.08965 -11.08631 -11.08500 -11.08193 -11.07846
 Alpha  occ. eigenvalues --  -11.07432 -11.07156 -11.06707 -11.06683 -11.06210
 Alpha  occ. eigenvalues --  -11.06085 -11.06055 -11.05839 -11.05665 -11.05657
 Alpha  occ. eigenvalues --  -11.05516 -11.04992 -11.04712 -11.04576 -11.04504
 Alpha  occ. eigenvalues --  -11.04455 -11.04454 -11.04309 -11.04246 -11.04210
 Alpha  occ. eigenvalues --  -11.04202 -11.03946 -11.03467 -11.03008 -11.02247
 Alpha  occ. eigenvalues --  -11.02159 -11.02026 -11.01971 -11.01940 -11.01765
 Alpha  occ. eigenvalues --  -11.01747 -11.01711 -11.01647 -11.01288  -1.38172
 Alpha  occ. eigenvalues --   -1.35643  -1.29353  -1.27991  -1.25387  -1.21772
 Alpha  occ. eigenvalues --   -1.20662  -1.19235  -1.10335  -1.09975  -1.08952
 Alpha  occ. eigenvalues --   -1.07614  -1.05676  -1.05180  -1.02625  -1.01040
 Alpha  occ. eigenvalues --   -0.99288  -0.98610  -0.98560  -0.97434  -0.97116
 Alpha  occ. eigenvalues --   -0.96355  -0.95001  -0.94904  -0.94150  -0.92420
 Alpha  occ. eigenvalues --   -0.91942  -0.91620  -0.89582  -0.89236  -0.87943
 Alpha  occ. eigenvalues --   -0.86536  -0.84880  -0.82862  -0.82233  -0.81026
 Alpha  occ. eigenvalues --   -0.80238  -0.79918  -0.78094  -0.78066  -0.77620
 Alpha  occ. eigenvalues --   -0.77196  -0.74418  -0.74250  -0.72713  -0.72271
 Alpha  occ. eigenvalues --   -0.71556  -0.70211  -0.69735  -0.68181  -0.66275
 Alpha  occ. eigenvalues --   -0.65260  -0.64888  -0.64591  -0.63728  -0.62754
 Alpha  occ. eigenvalues --   -0.62495  -0.62318  -0.61552  -0.61362  -0.61190
 Alpha  occ. eigenvalues --   -0.60944  -0.60102  -0.58984  -0.58947  -0.58486
 Alpha  occ. eigenvalues --   -0.58349  -0.58133  -0.57821  -0.57634  -0.57372
 Alpha  occ. eigenvalues --   -0.57048  -0.56766  -0.56082  -0.55950  -0.55475
 Alpha  occ. eigenvalues --   -0.55083  -0.54859  -0.54608  -0.54400  -0.54308
 Alpha  occ. eigenvalues --   -0.54129  -0.54076  -0.53361  -0.52761  -0.52094
 Alpha  occ. eigenvalues --   -0.51582  -0.51203  -0.50915  -0.50781  -0.50120
 Alpha  occ. eigenvalues --   -0.50095  -0.49913  -0.49279  -0.48971  -0.48621
 Alpha  occ. eigenvalues --   -0.48388  -0.48277  -0.48027  -0.47447  -0.47054
 Alpha  occ. eigenvalues --   -0.46708  -0.46211  -0.45843  -0.45670  -0.45178
 Alpha  occ. eigenvalues --   -0.44966  -0.44740  -0.44654  -0.44417  -0.43959
 Alpha  occ. eigenvalues --   -0.43761  -0.43175  -0.43132  -0.42783  -0.42750
 Alpha  occ. eigenvalues --   -0.42364  -0.41961  -0.41657  -0.41215  -0.40881
 Alpha  occ. eigenvalues --   -0.40322  -0.39818  -0.38803  -0.38587  -0.38069
 Alpha  occ. eigenvalues --   -0.37701  -0.37162  -0.36718  -0.35414  -0.34498
 Alpha  occ. eigenvalues --   -0.33641  -0.33028  -0.32381  -0.31096  -0.30406
 Alpha  occ. eigenvalues --   -0.27516  -0.26954  -0.26556  -0.21316  -0.20305
 Alpha  occ. eigenvalues --   -0.15896  -0.15373
 Alpha virt. eigenvalues --    0.26822   0.26883   0.27621   0.28799   0.30103
 Alpha virt. eigenvalues --    0.32951   0.45863   0.47893   0.48291   0.48966
 Alpha virt. eigenvalues --    0.49467   0.49894   0.50148   0.51601   0.52014

 Mulliken charges:
               1
     1  C   -0.076228
     2  C    0.000418
     3  C   -0.062209
     4  C   -0.089491
     5  C    0.088472
     6  C   -0.014155
     7  N   -0.286992
     8  C    0.018139
     9  C    0.127998
    10  C    0.040128
    11  C   -0.114902
    12  C   -0.105557
    13  C    0.028028
    14  N   -0.291122
    15  C   -0.015366
    16  C   -0.108272
    17  C   -0.102092
    18  C   -0.104265
    19  C   -0.020020
    20  C   -0.110564
    21  C   -0.066704
    22  C    0.319812
    23  O   -0.277566
    24  O   -0.255358
    25  C   -0.055812
    26  C   -0.079325
    27  C   -0.109990
    28  C    0.000952
    29  C   -0.079170
    30  C   -0.061822
    31  C   -0.090426
    32  C    0.095132
    33  C   -0.013035
    34  N   -0.280841
    35  C    0.015067
    36  C    0.134668
    37  C    0.039645
    38  C   -0.116064
    39  C   -0.105529
    40  C    0.040122
    41  N   -0.081599
    42  C   -0.003370
    43  C   -0.097182
    44  C   -0.099120
    45  C   -0.097864
    46  C   -0.004965
    47  C   -0.098685
    48  C   -0.058595
    49  C    0.326973
    50  O   -0.275371
    51  O   -0.255864
    52  C   -0.054009
    53  C   -0.077389
    54  O   -0.461406
    55  H    0.063728
    56  H    0.057539
    57  H    0.058889
    58  H    0.057179
    59  H    0.051192
    60  H    0.054929
    61  H    0.048802
    62  H    0.050981
    63  H    0.054465
    64  H    0.061290
    65  H    0.054636
    66  H    0.050604
    67  H    0.050615
    68  H    0.051905
    69  H    0.056571
    70  H    0.064060
    71  H    0.053287
    72  H    0.053640
    73  H    0.067393
    74  H    0.051898
    75  H    0.065482
    76  H    0.073994
    77  H    0.072834
    78  H    0.077709
    79  H    0.055883
    80  H    0.071905
    81  H    0.076599
    82  H    0.059800
    83  H    0.058514
    84  H    0.056383
    85  H    0.055732
    86  H    0.059858
    87  H    0.055116
    88  H    0.055024
    89  H    0.048890
    90  H    0.052546
    91  H    0.048206
    92  H    0.084352
    93  H    0.056621
    94  H    0.080475
    95  H    0.058410
    96  H    0.057977
    97  H    0.047282
    98  H    0.067683
    99  H    0.095097
   100  H    0.089434
   101  H    0.057818
   102  H    0.102105
   103  H    0.044520
   104  H    0.061726
   105  H    0.067220
   106  H    0.074082
   107  H    0.078189
   108  H    0.072122
   109  H    0.075138
   110  H    0.054414
 Sum of Mulliken charges =  -0.00000

 Dipole moment (field-independent basis, Debye):
    X=             -5.2822    Y=              1.1698    Z=              2.4161  Tot=              5.9252
 Quadrupole moment (field-independent basis, Debye-Ang):
   XX=           -298.8340   YY=           -303.8720   ZZ=           -291.9953
   XY=              6.7648   XZ=             11.0151   YZ=              2.4443

 Summary of Natural Population Analysis:

                                       Natural Population
                Natural  -----------------------------------------------
    Atom  No    Charge         Core      Valence    Rydberg      Total
 -----------------------------------------------------------------------
      C    1   -0.05802      1.99993     4.05809    0.00000     6.05802
      C    2    0.01444      1.99990     3.98565    0.00000     5.98556
      C    3   -0.03382      1.99994     4.03387    0.00000     6.03382
      C    4   -0.08620      1.99993     4.08627    0.00000     6.08620
      C    5    0.11135      1.99985     3.88880    0.00000     5.88865
      C    6   -0.02514      1.99990     4.02523    0.00000     6.02514
      N    7   -0.27539      1.99998     5.27541    0.00000     7.27539
      C    8    0.01978      1.99996     3.98026    0.00000     5.98022
      C    9    0.17124      1.99996     3.82880    0.00000     5.82876
      C   10    0.07354      1.99993     3.92653    0.00000     5.92646
      C   11   -0.08515      1.99994     4.08521    0.00000     6.08515
      C   12   -0.07362      1.99996     4.07366    0.00000     6.07362
      C   13    0.05045      1.99998     3.94957    0.00000     5.94955
      N   14   -0.27923      1.99999     5.27924    0.00000     7.27923
      C   15    0.03822      1.99994     3.96184    0.00000     5.96178
      C   16   -0.07466      1.99997     4.07469    0.00000     6.07466
      C   17   -0.06845      1.99996     4.06849    0.00000     6.06845
      C   18   -0.07373      1.99995     4.07378    0.00000     6.07373
      C   19    0.03304      1.99994     3.96702    0.00000     5.96696
      C   20   -0.07381      1.99992     4.07388    0.00000     6.07381
      C   21   -0.08472      1.99994     4.08478    0.00000     6.08472
      C   22    0.40328      1.99991     3.59680    0.00000     5.59672
      O   23   -0.31177      1.99999     6.31178    0.00000     8.31177
      O   24   -0.26696      1.99999     6.26697    0.00000     8.26696
      C   25    0.03461      1.99984     3.96555    0.00000     5.96539
      C   26   -0.01660      1.99992     4.01668    0.00000     6.01660
      C   27   -0.08677      1.99995     4.08681    0.00000     6.08677
      C   28    0.01562      1.99990     3.98448    0.00000     5.98438
      C   29   -0.06339      1.99992     4.06347    0.00000     6.06339
      C   30   -0.03338      1.99994     4.03343    0.00000     6.03338
      C   31   -0.08875      1.99993     4.08882    0.00000     6.08875
      C   32    0.11936      1.99985     3.88079    0.00000     5.88064
      C   33   -0.02179      1.99990     4.02190    0.00000     6.02179
      N   34   -0.27086      1.99998     5.27088    0.00000     7.27086
      C   35    0.01075      1.99996     3.98929    0.00000     5.98925
      C   36    0.17882      1.99996     3.82122    0.00000     5.82118
      C   37    0.06891      1.99991     3.93118    0.00000     5.93109
      C   38   -0.08450      1.99993     4.08458    0.00000     6.08450
      C   39   -0.07488      1.99996     4.07492    0.00000     6.07488
      C   40    0.05891      1.99998     3.94111    0.00000     5.94109
      N   41    0.03265      1.99999     4.96737    0.00000     6.96735
      C   42    0.04998      1.99992     3.95010    0.00000     5.95002
      C   43   -0.06346      1.99995     4.06351    0.00000     6.06346
      C   44   -0.06236      1.99994     4.06241    0.00000     6.06236
      C   45   -0.06685      1.99993     4.06692    0.00000     6.06685
      C   46    0.04574      1.99993     3.95433    0.00000     5.95426
      C   47   -0.06049      1.99991     4.06059    0.00000     6.06049
      C   48   -0.07395      1.99994     4.07402    0.00000     6.07395
      C   49    0.40920      1.99991     3.59090    0.00000     5.59080
      O   50   -0.31074      1.99999     6.31075    0.00000     8.31074
      O   51   -0.26820      1.99999     6.26820    0.00000     8.26820
      C   52    0.03626      1.99984     3.96390    0.00000     5.96374
      C   53   -0.01557      1.99993     4.01565    0.00000     6.01557
      O   54   -0.51389      2.00000     6.51390    0.00000     8.51389
      H   55    0.03803      0.00000     0.96197    0.00000     0.96197
      H   56    0.03021      0.00000     0.96979    0.00000     0.96979
      H   57    0.03472      0.00000     0.96528    0.00000     0.96528
      H   58    0.02593      0.00000     0.97407    0.00000     0.97407
      H   59    0.02904      0.00000     0.97096    0.00000     0.97096
      H   60    0.03198      0.00000     0.96802    0.00000     0.96802
      H   61    0.02775      0.00000     0.97225    0.00000     0.97225
      H   62    0.02984      0.00000     0.97016    0.00000     0.97016
      H   63    0.02735      0.00000     0.97265    0.00000     0.97265
      H   64    0.03545      0.00000     0.96455    0.00000     0.96455
      H   65    0.03470      0.00000     0.96530    0.00000     0.96530
      H   66    0.02999      0.00000     0.97001    0.00000     0.97001
      H   67    0.02978      0.00000     0.97022    0.00000     0.97022
      H   68    0.03100      0.00000     0.96900    0.00000     0.96900
      H   69    0.03580      0.00000     0.96420    0.00000     0.96420
      H   70    0.04125      0.00000     0.95875    0.00000     0.95875
      H   71    0.02749      0.00000     0.97251    0.00000     0.97251
      H   72    0.02442      0.00000     0.97558    0.00000     0.97558
      H   73    0.04219      0.00000     0.95781    0.00000     0.95781
      H   74    0.02971      0.00000     0.97029    0.00000     0.97029
      H   75    0.04259      0.00000     0.95741    0.00000     0.95741
      H   76    0.04256      0.00000     0.95744    0.00000     0.95744
      H   77    0.04126      0.00000     0.95874    0.00000     0.95874
      H   78    0.04660      0.00000     0.95340    0.00000     0.95340
      H   79    0.03044      0.00000     0.96956    0.00000     0.96956
      H   80    0.04751      0.00000     0.95249    0.00000     0.95249
      H   81    0.05216      0.00000     0.94784    0.00000     0.94784
      H   82    0.04106      0.00000     0.95894    0.00000     0.95894
      H   83    0.03949      0.00000     0.96051    0.00000     0.96051
      H   84    0.03134      0.00000     0.96866    0.00000     0.96866
      H   85    0.02839      0.00000     0.97161    0.00000     0.97161
      H   86    0.03576      0.00000     0.96424    0.00000     0.96424
      H   87    0.02291      0.00000     0.97709    0.00000     0.97709
      H   88    0.03137      0.00000     0.96863    0.00000     0.96863
      H   89    0.02624      0.00000     0.97376    0.00000     0.97376
      H   90    0.03175      0.00000     0.96825    0.00000     0.96825
      H   91    0.02719      0.00000     0.97281    0.00000     0.97281
      H   92    0.05278      0.00000     0.94722    0.00000     0.94722
      H   93    0.02596      0.00000     0.97404    0.00000     0.97404
      H   94    0.05580      0.00000     0.94420    0.00000     0.94420
      H   95    0.03656      0.00000     0.96344    0.00000     0.96344
      H   96    0.03565      0.00000     0.96435    0.00000     0.96435
      H   97    0.02512      0.00000     0.97488    0.00000     0.97488
      H   98    0.04463      0.00000     0.95537    0.00000     0.95537
      H   99    0.06745      0.00000     0.93255    0.00000     0.93255
      H  100    0.05797      0.00000     0.94203    0.00000     0.94203
      H  101    0.02735      0.00000     0.97265    0.00000     0.97265
      H  102    0.07275      0.00000     0.92725    0.00000     0.92725
      H  103    0.02103      0.00000     0.97897    0.00000     0.97897
      H  104    0.03862      0.00000     0.96138    0.00000     0.96138
      H  105    0.03598      0.00000     0.96402    0.00000     0.96402
      H  106    0.04330      0.00000     0.95670    0.00000     0.95670
      H  107    0.04651      0.00000     0.95349    0.00000     0.95349
      H  108    0.04833      0.00000     0.95167    0.00000     0.95167
      H  109    0.05088      0.00000     0.94912    0.00000     0.94912
      H  110    0.02898      0.00000     0.97102    0.00000     0.97102
 =======================================================================
   * Total *   -0.00000    107.99664   286.00336    0.00000   394.00000

 Normal termination of Gaussian 16 at Thu May 30 09:49:16 2024.
