 Gaussian 16, Revision B.01,
 Gaussian 16:  ES64L-G16RevB.01 20-Dec-2017

 ----------------------------------------------
 # nmr=giao hf/sto-3g pop=nbo geom=connectivity
 ----------------------------------------------

 -----------------
 Pleiokomenine_C_2
 -----------------
 Symbolic Z-matrix:
 Charge =  0 Multiplicity = 1

                         Standard orientation:
 ---------------------------------------------------------------------
 Center     Atomic      Atomic             Coordinates (Angstroms)
 Number     Number       Type             X           Y           Z
 ---------------------------------------------------------------------
      1          6           0       -1.789175   -1.672678   -1.595234
      2          6           0       -1.169146   -1.663084   -2.852866
      3          6           0       -1.562680   -0.706651   -3.812472
      4          6           0       -2.556598    0.239733   -3.530967
      5          6           0       -3.163810    0.225476   -2.287567
      6          6           0       -2.760374   -0.719388   -1.327896
      7          7           0       -4.195835    1.074687   -1.806948
      8          6           0       -3.480749   -0.432522   -0.033631
      9          6           0       -4.731146    0.306104   -0.652931
     10          6           0       -3.964955   -1.580635    0.863055
     11          6           0       -5.759531   -0.785596   -1.183654
     12          6           0       -6.271424   -1.670424   -0.039717
     13          6           0       -5.469239   -1.353383    1.237664
     14          7           0       -3.022634   -1.599559    1.983191
     15          6           0       -3.452837   -2.369516    3.141408
     16          6           0       -4.901510   -2.139026    3.570664
     17          6           0       -5.863303   -2.286827    2.391490
     18          6           0       -2.481192    0.355214    0.849163
     19          6           0       -2.596241   -0.234853    2.248418
     20          6           0       -5.815608    0.134147    1.587893
     21          6           0       -5.527430    1.094414    0.401692
     22          6           0       -4.939163    2.416730    0.860573
     23          8           0       -4.428137    2.618346    1.954951
     24          8           0       -5.123166    3.379910   -0.086104
     25          6           0       -4.579027    4.652864    0.261894
     26          6           0       -5.084465    1.655010   -2.802675
     27          6           0       -0.054803   -2.643217   -3.161443
     28          6           0        1.174422   -2.524095   -2.278560
     29          6           0        1.603091   -1.284571   -1.780029
     30          6           0        1.918993   -3.685592   -1.971068
     31          6           0        3.064032   -3.633226   -1.163981
     32          6           0        3.471462   -2.410200   -0.667908
     33          6           0        2.721184   -1.250558   -0.962619
     34          7           0        4.614610   -2.111667    0.123288
     35          6           0        3.303883   -0.110278   -0.157554
     36          6           0        4.773254   -0.655432   -0.117638
     37          6           0        3.360891    1.316943   -0.672580
     38          6           0        5.440172   -0.484262   -1.579931
     39          6           0        5.322176    0.951407   -2.099892
     40          6           0        4.770656    1.845633   -0.977307
     41          7           0        2.682926    2.167806    0.388004
     42          6           0        2.343222    3.483328   -0.228130
     43          6           0        3.658927    4.185098   -0.623287
     44          6           0        4.629679    3.312641   -1.453392
     45          6           0        2.355474   -0.019316    1.073747
     46          6           0        1.575012    1.285692    0.829151
     47          6           0        5.761999    1.642500    0.220672
     48          6           0        5.721771    0.172988    0.779661
     49          6           0        5.564469    0.149816    2.291744
     50          8           0        6.083901    0.976044    3.036128
     51          8           0        4.941164   -0.972006    2.734948
     52          6           0        4.802946   -1.047004    4.152799
     53          6           0        5.743418   -3.020951    0.068675
     54          8           0        3.432385    2.415450    1.508970
     55          1           0       -1.482368   -2.375842   -0.824519
     56          1           0       -1.083394   -0.686139   -4.789201
     57          1           0       -2.831827    0.968413   -4.284693
     58          1           0       -3.871882   -2.545375    0.345889
     59          1           0       -5.311591   -1.425079   -1.954537
     60          1           0       -6.617538   -0.303739   -1.669884
     61          1           0       -7.342384   -1.492797    0.120675
     62          1           0       -6.173917   -2.726701   -0.319472
     63          1           0       -3.336878   -3.432556    2.893110
     64          1           0       -2.780522   -2.194199    3.990095
     65          1           0       -5.168406   -2.867151    4.345780
     66          1           0       -5.004904   -1.149260    4.028411
     67          1           0       -5.845325   -3.329954    2.049882
     68          1           0       -6.888650   -2.084427    2.723181
     69          1           0       -1.446171    0.190964    0.516511
     70          1           0       -2.614700    1.436121    0.828828
     71          1           0       -1.627397   -0.212226    2.758912
     72          1           0       -3.301513    0.325726    2.863623
     73          1           0       -5.317915    0.452725    2.503995
     74          1           0       -6.887159    0.204700    1.824331
     75          1           0       -6.507577    1.369220   -0.017892
     76          1           0       -5.091369    5.060331    1.138960
     77          1           0       -3.501966    4.575362    0.441433
     78          1           0       -4.740550    5.331588   -0.580094
     79          1           0       -5.487970    0.898288   -3.484915
     80          1           0       -4.555553    2.411831   -3.391756
     81          1           0       -5.929747    2.157596   -2.322944
     82          1           0       -0.477647   -3.652860   -3.075462
     83          1           0        0.271021   -2.530009   -4.203201
     84          1           0        1.044536   -0.377804   -1.987722
     85          1           0        1.600931   -4.651807   -2.358461
     86          1           0        3.609181   -4.542852   -0.941290
     87          1           0        2.723137    1.406398   -1.564645
     88          1           0        5.013862   -1.161634   -2.330007
     89          1           0        6.501676   -0.764059   -1.531359
     90          1           0        6.300359    1.306012   -2.447354
     91          1           0        4.659097    0.971039   -2.974314
     92          1           0        1.790484    4.056476    0.523583
     93          1           0        1.698057    3.292684   -1.091867
     94          1           0        3.426601    5.099972   -1.180396
     95          1           0        4.182367    4.507263    0.285579
     96          1           0        4.252123    3.312017   -2.485117
     97          1           0        5.613413    3.795809   -1.490970
     98          1           0        1.658964   -0.856938    1.196597
     99          1           0        2.907955    0.064974    2.009610
    100          1           0        0.850575    1.216179    0.011880
    101          1           0        1.117961    1.703643    1.730657
    102          1           0        5.622626    2.392234    1.002813
    103          1           0        6.783182    1.835606   -0.140160
    104          1           0        6.734909   -0.239832    0.654862
    105          1           0        5.785390   -1.132061    4.627477
    106          1           0        4.225526   -1.945002    4.389092
    107          1           0        4.259511   -0.177362    4.535844
    108          1           0        6.573444   -2.635820    0.669143
    109          1           0        5.474112   -3.995307    0.490184
    110          1           0        6.102804   -3.169930   -0.955192
 ---------------------------------------------------------------------

 SCF Done:  E(RHF) =  -2300.19850375     A.U. after   16 cycles

      1  C    Isotropic =   123.5129   Anisotropy =   156.1177

      2  C    Isotropic =   118.3045   Anisotropy =   163.7342

      3  C    Isotropic =   118.6916   Anisotropy =   152.1802

      4  C    Isotropic =   133.8095   Anisotropy =   143.9542

      5  C    Isotropic =   108.8908   Anisotropy =   128.8168

      6  C    Isotropic =   116.9579   Anisotropy =   143.1290

      7  N    Isotropic =   273.9787   Anisotropy =    82.2989

      8  C    Isotropic =   195.9283   Anisotropy =    11.5528

      9  C    Isotropic =   181.0298   Anisotropy =    44.7401

     10  C    Isotropic =   190.5510   Anisotropy =    28.8111

     11  C    Isotropic =   213.7337   Anisotropy =    20.0900

     12  C    Isotropic =   212.8884   Anisotropy =    20.8965

     13  C    Isotropic =   213.6943   Anisotropy =     9.0656

     14  N    Isotropic =   303.2118   Anisotropy =    53.4925

     15  C    Isotropic =   205.3884   Anisotropy =    35.2569

     16  C    Isotropic =   224.2701   Anisotropy =     8.4804

     17  C    Isotropic =   215.3438   Anisotropy =    19.9764

     18  C    Isotropic =   210.5091   Anisotropy =    36.2941

     19  C    Isotropic =   200.0391   Anisotropy =    41.8160

     20  C    Isotropic =   212.2297   Anisotropy =    20.9108

     21  C    Isotropic =   209.1230   Anisotropy =     9.6059

     22  C    Isotropic =    96.5241   Anisotropy =    98.6413

     23  O    Isotropic =  -135.2535   Anisotropy =   890.1152

     24  O    Isotropic =   283.7047   Anisotropy =   140.0223

     25  C    Isotropic =   197.3650   Anisotropy =    56.8852

     26  C    Isotropic =   209.8624   Anisotropy =    41.6656

     27  C    Isotropic =   206.3373   Anisotropy =    21.4721

     28  C    Isotropic =   118.3221   Anisotropy =   159.8637

     29  C    Isotropic =   127.9927   Anisotropy =   151.3981

     30  C    Isotropic =   118.5130   Anisotropy =   152.7541

     31  C    Isotropic =   133.7149   Anisotropy =   143.4132

     32  C    Isotropic =   108.3534   Anisotropy =   129.7705

     33  C    Isotropic =   117.5657   Anisotropy =   142.2399

     34  N    Isotropic =   272.0064   Anisotropy =    83.9570

     35  C    Isotropic =   200.9780   Anisotropy =    14.2362

     36  C    Isotropic =   178.9134   Anisotropy =    38.3126

     37  C    Isotropic =   184.0457   Anisotropy =    42.4211

     38  C    Isotropic =   210.9520   Anisotropy =    23.7382

     39  C    Isotropic =   212.7473   Anisotropy =    19.9639

     40  C    Isotropic =   211.5779   Anisotropy =    11.5449

     41  N    Isotropic =   235.6047   Anisotropy =    24.7492

     42  C    Isotropic =   194.1193   Anisotropy =    49.3778

     43  C    Isotropic =   219.3904   Anisotropy =    11.4526

     44  C    Isotropic =   214.9087   Anisotropy =    22.3794

     45  C    Isotropic =   206.6964   Anisotropy =    34.5424

     46  C    Isotropic =   191.1877   Anisotropy =    54.5334

     47  C    Isotropic =   211.1570   Anisotropy =    24.4049

     48  C    Isotropic =   207.6663   Anisotropy =    11.5940

     49  C    Isotropic =    98.5364   Anisotropy =   103.5333

     50  O    Isotropic =  -132.6397   Anisotropy =   875.3403

     51  O    Isotropic =   286.4001   Anisotropy =   131.7371

     52  C    Isotropic =   197.5790   Anisotropy =    57.5591

     53  C    Isotropic =   210.7695   Anisotropy =    42.1825

     54  O    Isotropic =    79.3783   Anisotropy =   397.7614

     55  H    Isotropic =    26.0962   Anisotropy =    15.2921

     56  H    Isotropic =    25.7075   Anisotropy =     5.6576

     57  H    Isotropic =    26.5218   Anisotropy =     7.4539

     58  H    Isotropic =    31.6246   Anisotropy =     8.6574

     59  H    Isotropic =    32.9141   Anisotropy =     8.7823

     60  H    Isotropic =    32.1670   Anisotropy =    13.6765

     61  H    Isotropic =    32.3657   Anisotropy =    15.5147

     62  H    Isotropic =    32.6024   Anisotropy =    13.8195

     63  H    Isotropic =    31.9214   Anisotropy =    14.2792

     64  H    Isotropic =    31.8979   Anisotropy =    14.4190

     65  H    Isotropic =    32.6800   Anisotropy =    18.1664

     66  H    Isotropic =    32.5861   Anisotropy =    10.3810

     67  H    Isotropic =    32.6880   Anisotropy =    13.5142

     68  H    Isotropic =    32.5101   Anisotropy =    15.1367

     69  H    Isotropic =    32.7855   Anisotropy =    18.6037

     70  H    Isotropic =    33.0595   Anisotropy =     8.8072

     71  H    Isotropic =    32.0470   Anisotropy =    15.2829

     72  H    Isotropic =    31.9991   Anisotropy =     8.4907

     73  H    Isotropic =    31.4197   Anisotropy =     8.9897

     74  H    Isotropic =    32.2361   Anisotropy =    15.1304

     75  H    Isotropic =    31.1916   Anisotropy =    12.5885

     76  H    Isotropic =    30.5686   Anisotropy =    11.6294

     77  H    Isotropic =    30.6639   Anisotropy =     8.1432

     78  H    Isotropic =    30.5503   Anisotropy =    11.7225

     79  H    Isotropic =    31.8570   Anisotropy =    12.1234

     80  H    Isotropic =    30.7181   Anisotropy =    13.8554

     81  H    Isotropic =    30.8656   Anisotropy =    10.7416

     82  H    Isotropic =    29.9015   Anisotropy =    11.0871

     83  H    Isotropic =    30.2043   Anisotropy =    11.2605

     84  H    Isotropic =    27.4129   Anisotropy =    16.8729

     85  H    Isotropic =    25.5804   Anisotropy =     6.3873

     86  H    Isotropic =    26.3435   Anisotropy =     7.5180

     87  H    Isotropic =    32.1143   Anisotropy =     7.3319

     88  H    Isotropic =    33.1103   Anisotropy =     8.4701

     89  H    Isotropic =    32.1128   Anisotropy =    13.7219

     90  H    Isotropic =    32.2496   Anisotropy =    15.9324

     91  H    Isotropic =    32.9969   Anisotropy =    11.6768

     92  H    Isotropic =    31.1052   Anisotropy =    13.1630

     93  H    Isotropic =    32.3534   Anisotropy =    10.8969

     94  H    Isotropic =    32.4501   Anisotropy =    17.1254

     95  H    Isotropic =    31.2060   Anisotropy =    13.2674

     96  H    Isotropic =    32.7871   Anisotropy =    12.1310

     97  H    Isotropic =    32.1823   Anisotropy =    15.5701

     98  H    Isotropic =    32.5991   Anisotropy =    11.0762

     99  H    Isotropic =    30.6886   Anisotropy =    13.0392

    100  H    Isotropic =    32.2258   Anisotropy =    17.1714

    101  H    Isotropic =    31.1910   Anisotropy =    13.6710

    102  H    Isotropic =    30.1329   Anisotropy =    11.3906

    103  H    Isotropic =    31.7868   Anisotropy =    15.2736

    104  H    Isotropic =    31.4046   Anisotropy =    13.2006

    105  H    Isotropic =    30.5708   Anisotropy =    12.7943

    106  H    Isotropic =    30.6085   Anisotropy =    10.2682

    107  H    Isotropic =    30.5192   Anisotropy =     8.4748

    108  H    Isotropic =    31.2647   Anisotropy =    11.7041

    109  H    Isotropic =    30.6238   Anisotropy =    14.4711

    110  H    Isotropic =    31.8641   Anisotropy =    12.3343

 The electronic state is 1-A.
 Alpha  occ. eigenvalues --  -20.30751 -20.28862 -20.24775 -20.22063 -19.91811
 Alpha  occ. eigenvalues --  -15.48046 -15.33767 -15.33341 -15.30529 -11.16635
 Alpha  occ. eigenvalues --  -11.14523 -11.10699 -11.09560 -11.09504 -11.09260
 Alpha  occ. eigenvalues --  -11.09021 -11.08984 -11.08568 -11.08144 -11.07947
 Alpha  occ. eigenvalues --  -11.07162 -11.06779 -11.06526 -11.06317 -11.06170
 Alpha  occ. eigenvalues --  -11.06135 -11.05857 -11.05819 -11.05689 -11.05481
 Alpha  occ. eigenvalues --  -11.05407 -11.05000 -11.04630 -11.04609 -11.04597
 Alpha  occ. eigenvalues --  -11.04474 -11.04199 -11.04063 -11.04057 -11.04031
 Alpha  occ. eigenvalues --  -11.03888 -11.03874 -11.03587 -11.03007 -11.02233
 Alpha  occ. eigenvalues --  -11.02225 -11.02019 -11.01975 -11.01965 -11.01816
 Alpha  occ. eigenvalues --  -11.01733 -11.01733 -11.01571 -11.01392  -1.37986
 Alpha  occ. eigenvalues --   -1.35937  -1.29496  -1.27795  -1.25234  -1.21601
 Alpha  occ. eigenvalues --   -1.20699  -1.18914  -1.10382  -1.09788  -1.08923
 Alpha  occ. eigenvalues --   -1.07593  -1.05698  -1.04955  -1.02610  -1.00889
 Alpha  occ. eigenvalues --   -0.99186  -0.98636  -0.98491  -0.97376  -0.96868
 Alpha  occ. eigenvalues --   -0.96378  -0.95068  -0.94581  -0.94083  -0.92298
 Alpha  occ. eigenvalues --   -0.91774  -0.91613  -0.90067  -0.89491  -0.87962
 Alpha  occ. eigenvalues --   -0.86420  -0.84835  -0.82822  -0.82027  -0.80781
 Alpha  occ. eigenvalues --   -0.80311  -0.79720  -0.78167  -0.77818  -0.77468
 Alpha  occ. eigenvalues --   -0.77190  -0.74447  -0.74080  -0.72719  -0.72127
 Alpha  occ. eigenvalues --   -0.71380  -0.70277  -0.69488  -0.68361  -0.66038
 Alpha  occ. eigenvalues --   -0.65215  -0.65046  -0.64641  -0.63680  -0.63119
 Alpha  occ. eigenvalues --   -0.62383  -0.62185  -0.61460  -0.61268  -0.61138
 Alpha  occ. eigenvalues --   -0.60751  -0.59860  -0.59262  -0.58762  -0.58426
 Alpha  occ. eigenvalues --   -0.58310  -0.58085  -0.57864  -0.57678  -0.57252
 Alpha  occ. eigenvalues --   -0.56939  -0.56729  -0.56141  -0.55555  -0.55316
 Alpha  occ. eigenvalues --   -0.54917  -0.54729  -0.54557  -0.54385  -0.54270
 Alpha  occ. eigenvalues --   -0.53982  -0.53669  -0.53224  -0.52883  -0.52198
 Alpha  occ. eigenvalues --   -0.51874  -0.51485  -0.51006  -0.50577  -0.50442
 Alpha  occ. eigenvalues --   -0.49941  -0.49506  -0.49367  -0.48854  -0.48451
 Alpha  occ. eigenvalues --   -0.48317  -0.48068  -0.47943  -0.47388  -0.47017
 Alpha  occ. eigenvalues --   -0.46778  -0.45977  -0.45907  -0.45738  -0.45109
 Alpha  occ. eigenvalues --   -0.44949  -0.44696  -0.44456  -0.44415  -0.43762
 Alpha  occ. eigenvalues --   -0.43577  -0.43092  -0.42798  -0.42630  -0.42423
 Alpha  occ. eigenvalues --   -0.42246  -0.42200  -0.41454  -0.41075  -0.40668
 Alpha  occ. eigenvalues --   -0.40374  -0.39711  -0.38617  -0.38543  -0.38026
 Alpha  occ. eigenvalues --   -0.37518  -0.37128  -0.36550  -0.35464  -0.34395
 Alpha  occ. eigenvalues --   -0.33458  -0.32937  -0.32239  -0.31123  -0.30651
 Alpha  occ. eigenvalues --   -0.27424  -0.26980  -0.26157  -0.21267  -0.20390
 Alpha  occ. eigenvalues --   -0.15741  -0.15241
 Alpha virt. eigenvalues --    0.26671   0.27376   0.27677   0.28269   0.30324
 Alpha virt. eigenvalues --    0.33070   0.45793   0.48082   0.48494   0.48924
 Alpha virt. eigenvalues --    0.49401   0.50070   0.50323   0.51929   0.52097

 Mulliken charges:
               1
     1  C   -0.074407
     2  C   -0.001542
     3  C   -0.064611
     4  C   -0.091763
     5  C    0.088218
     6  C   -0.013370
     7  N   -0.286881
     8  C    0.018333
     9  C    0.127692
    10  C    0.041049
    11  C   -0.114901
    12  C   -0.105575
    13  C    0.028022
    14  N   -0.291124
    15  C   -0.014758
    16  C   -0.108260
    17  C   -0.102030
    18  C   -0.105242
    19  C   -0.019330
    20  C   -0.110517
    21  C   -0.066593
    22  C    0.319378
    23  O   -0.276133
    24  O   -0.255735
    25  C   -0.055888
    26  C   -0.079246
    27  C   -0.110280
    28  C    0.000675
    29  C   -0.079765
    30  C   -0.062488
    31  C   -0.090343
    32  C    0.093843
    33  C   -0.013918
    34  N   -0.279332
    35  C    0.015560
    36  C    0.135288
    37  C    0.039784
    38  C   -0.116050
    39  C   -0.105439
    40  C    0.040674
    41  N   -0.080570
    42  C   -0.003101
    43  C   -0.097094
    44  C   -0.098996
    45  C   -0.095975
    46  C   -0.005009
    47  C   -0.098583
    48  C   -0.059179
    49  C    0.325048
    50  O   -0.273698
    51  O   -0.255482
    52  C   -0.055641
    53  C   -0.077400
    54  O   -0.461318
    55  H    0.068480
    56  H    0.055344
    57  H    0.057794
    58  H    0.056810
    59  H    0.054371
    60  H    0.050765
    61  H    0.048402
    62  H    0.050705
    63  H    0.054136
    64  H    0.062334
    65  H    0.054047
    66  H    0.050643
    67  H    0.050260
    68  H    0.051449
    69  H    0.060068
    70  H    0.062711
    71  H    0.057712
    72  H    0.052190
    73  H    0.068152
    74  H    0.051552
    75  H    0.065017
    76  H    0.073052
    77  H    0.073915
    78  H    0.077003
    79  H    0.055776
    80  H    0.071241
    81  H    0.076970
    82  H    0.060796
    83  H    0.059176
    84  H    0.057336
    85  H    0.055457
    86  H    0.059740
    87  H    0.054303
    88  H    0.054288
    89  H    0.049335
    90  H    0.053040
    91  H    0.046810
    92  H    0.084797
    93  H    0.055687
    94  H    0.057390
    95  H    0.082024
    96  H    0.046376
    97  H    0.058655
    98  H    0.068255
    99  H    0.092479
   100  H    0.058264
   101  H    0.090003
   102  H    0.101103
   103  H    0.045008
   104  H    0.061405
   105  H    0.069773
   106  H    0.074301
   107  H    0.076751
   108  H    0.072009
   109  H    0.073774
   110  H    0.054766
 Sum of Mulliken charges =  -0.00000

 Dipole moment (field-independent basis, Debye):
    X=             -3.6621    Y=             -0.8676    Z=             -4.1308  Tot=              5.5881
 Quadrupole moment (field-independent basis, Debye-Ang):
   XX=           -287.6994   YY=           -294.9176   ZZ=           -304.0569
   XY=            -13.6408   XZ=            -16.3180   YZ=            -15.0348

 Summary of Natural Population Analysis:

                                       Natural Population
                Natural  -----------------------------------------------
    Atom  No    Charge         Core      Valence    Rydberg      Total
 -----------------------------------------------------------------------
      C    1   -0.05541      1.99993     4.05548    0.00000     6.05541
      C    2    0.01213      1.99991     3.98797    0.00000     5.98787
      C    3   -0.03642      1.99994     4.03647    0.00000     6.03642
      C    4   -0.08889      1.99993     4.08896    0.00000     6.08889
      C    5    0.11131      1.99985     3.88884    0.00000     5.88869
      C    6   -0.02413      1.99990     4.02423    0.00000     6.02413
      N    7   -0.27525      1.99998     5.27527    0.00000     7.27525
      C    8    0.02008      1.99996     3.97997    0.00000     5.97992
      C    9    0.17107      1.99996     3.82897    0.00000     5.82893
      C   10    0.07434      1.99993     3.92573    0.00000     5.92566
      C   11   -0.08509      1.99994     4.08515    0.00000     6.08509
      C   12   -0.07376      1.99996     4.07380    0.00000     6.07376
      C   13    0.05037      1.99998     3.94965    0.00000     5.94963
      N   14   -0.27951      1.99999     5.27952    0.00000     7.27951
      C   15    0.03876      1.99994     3.96131    0.00000     5.96124
      C   16   -0.07465      1.99997     4.07468    0.00000     6.07465
      C   17   -0.06825      1.99996     4.06829    0.00000     6.06825
      C   18   -0.07497      1.99995     4.07503    0.00000     6.07497
      C   19    0.03380      1.99994     3.96626    0.00000     5.96620
      C   20   -0.07377      1.99992     4.07384    0.00000     6.07377
      C   21   -0.08455      1.99994     4.08460    0.00000     6.08455
      C   22    0.40252      1.99991     3.59757    0.00000     5.59748
      O   23   -0.31015      1.99999     6.31017    0.00000     8.31015
      O   24   -0.26734      1.99999     6.26734    0.00000     8.26734
      C   25    0.03453      1.99984     3.96563    0.00000     5.96547
      C   26   -0.01652      1.99992     4.01660    0.00000     6.01652
      C   27   -0.08716      1.99995     4.08721    0.00000     6.08716
      C   28    0.01581      1.99990     3.98429    0.00000     5.98419
      C   29   -0.06412      1.99992     4.06420    0.00000     6.06412
      C   30   -0.03439      1.99994     4.03445    0.00000     6.03439
      C   31   -0.08855      1.99993     4.08862    0.00000     6.08855
      C   32    0.11752      1.99985     3.88263    0.00000     5.88248
      C   33   -0.02230      1.99990     4.02240    0.00000     6.02230
      N   34   -0.26934      1.99998     5.26936    0.00000     7.26934
      C   35    0.01111      1.99996     3.98894    0.00000     5.98889
      C   36    0.17965      1.99996     3.82039    0.00000     5.82035
      C   37    0.06873      1.99991     3.93136    0.00000     5.93127
      C   38   -0.08441      1.99993     4.08448    0.00000     6.08441
      C   39   -0.07472      1.99996     4.07476    0.00000     6.07472
      C   40    0.05986      1.99998     3.94016    0.00000     5.94014
      N   41    0.03415      1.99999     4.96586    0.00000     6.96585
      C   42    0.05009      1.99992     3.94999    0.00000     5.94991
      C   43   -0.06330      1.99995     4.06336    0.00000     6.06330
      C   44   -0.06231      1.99994     4.06236    0.00000     6.06231
      C   45   -0.06448      1.99993     4.06455    0.00000     6.06448
      C   46    0.04553      1.99993     3.95454    0.00000     5.95447
      C   47   -0.06063      1.99991     4.06072    0.00000     6.06063
      C   48   -0.07453      1.99994     4.07459    0.00000     6.07453
      C   49    0.40551      1.99991     3.59458    0.00000     5.59449
      O   50   -0.30930      1.99999     6.30931    0.00000     8.30930
      O   51   -0.26659      1.99999     6.26660    0.00000     8.26659
      C   52    0.03478      1.99984     3.96538    0.00000     5.96522
      C   53   -0.01542      1.99993     4.01549    0.00000     6.01542
      O   54   -0.51422      2.00000     6.51422    0.00000     8.51422
      H   55    0.04215      0.00000     0.95785    0.00000     0.95785
      H   56    0.02838      0.00000     0.97162    0.00000     0.97162
      H   57    0.03386      0.00000     0.96614    0.00000     0.96614
      H   58    0.02561      0.00000     0.97439    0.00000     0.97439
      H   59    0.03146      0.00000     0.96854    0.00000     0.96854
      H   60    0.02864      0.00000     0.97136    0.00000     0.97136
      H   61    0.02743      0.00000     0.97257    0.00000     0.97257
      H   62    0.02963      0.00000     0.97037    0.00000     0.97037
      H   63    0.02705      0.00000     0.97295    0.00000     0.97295
      H   64    0.03645      0.00000     0.96355    0.00000     0.96355
      H   65    0.03417      0.00000     0.96583    0.00000     0.96583
      H   66    0.03003      0.00000     0.96997    0.00000     0.96997
      H   67    0.02944      0.00000     0.97056    0.00000     0.97056
      H   68    0.03056      0.00000     0.96944    0.00000     0.96944
      H   69    0.03892      0.00000     0.96108    0.00000     0.96108
      H   70    0.04013      0.00000     0.95987    0.00000     0.95987
      H   71    0.03150      0.00000     0.96850    0.00000     0.96850
      H   72    0.02308      0.00000     0.97692    0.00000     0.97692
      H   73    0.04287      0.00000     0.95713    0.00000     0.95713
      H   74    0.02938      0.00000     0.97062    0.00000     0.97062
      H   75    0.04217      0.00000     0.95783    0.00000     0.95783
      H   76    0.04147      0.00000     0.95853    0.00000     0.95853
      H   77    0.04250      0.00000     0.95750    0.00000     0.95750
      H   78    0.04595      0.00000     0.95405    0.00000     0.95405
      H   79    0.03035      0.00000     0.96965    0.00000     0.96965
      H   80    0.04690      0.00000     0.95310    0.00000     0.95310
      H   81    0.05251      0.00000     0.94749    0.00000     0.94749
      H   82    0.04206      0.00000     0.95794    0.00000     0.95794
      H   83    0.04040      0.00000     0.95960    0.00000     0.95960
      H   84    0.03233      0.00000     0.96767    0.00000     0.96767
      H   85    0.02816      0.00000     0.97184    0.00000     0.97184
      H   86    0.03572      0.00000     0.96428    0.00000     0.96428
      H   87    0.02219      0.00000     0.97781    0.00000     0.97781
      H   88    0.03068      0.00000     0.96932    0.00000     0.96932
      H   89    0.02661      0.00000     0.97339    0.00000     0.97339
      H   90    0.03214      0.00000     0.96786    0.00000     0.96786
      H   91    0.02589      0.00000     0.97411    0.00000     0.97411
      H   92    0.05323      0.00000     0.94677    0.00000     0.94677
      H   93    0.02511      0.00000     0.97489    0.00000     0.97489
      H   94    0.03560      0.00000     0.96440    0.00000     0.96440
      H   95    0.05717      0.00000     0.94283    0.00000     0.94283
      H   96    0.02426      0.00000     0.97574    0.00000     0.97574
      H   97    0.03627      0.00000     0.96373    0.00000     0.96373
      H   98    0.04498      0.00000     0.95502    0.00000     0.95502
      H   99    0.06510      0.00000     0.93490    0.00000     0.93490
      H  100    0.02775      0.00000     0.97225    0.00000     0.97225
      H  101    0.05851      0.00000     0.94149    0.00000     0.94149
      H  102    0.07192      0.00000     0.92808    0.00000     0.92808
      H  103    0.02153      0.00000     0.97847    0.00000     0.97847
      H  104    0.03844      0.00000     0.96156    0.00000     0.96156
      H  105    0.03853      0.00000     0.96147    0.00000     0.96147
      H  106    0.04346      0.00000     0.95654    0.00000     0.95654
      H  107    0.04515      0.00000     0.95485    0.00000     0.95485
      H  108    0.04819      0.00000     0.95181    0.00000     0.95181
      H  109    0.04955      0.00000     0.95045    0.00000     0.95045
      H  110    0.02929      0.00000     0.97071    0.00000     0.97071
 =======================================================================
   * Total *   -0.00000    107.99665   286.00335    0.00000   394.00000

 Normal termination of Gaussian 16 at Thu May 30 09:59:10 2024.
