 Gaussian 16, Revision B.01,
 Gaussian 16:  ES64L-G16RevB.01 20-Dec-2017

 ----------------------------------------------
 # nmr=giao hf/sto-3g pop=nbo geom=connectivity
 ----------------------------------------------

 -----------------
 Pleiokomenine_C_2
 -----------------
 Symbolic Z-matrix:
 Charge =  0 Multiplicity = 1

                         Standard orientation:
 ---------------------------------------------------------------------
 Center     Atomic      Atomic             Coordinates (Angstroms)
 Number     Number       Type             X           Y           Z
 ---------------------------------------------------------------------
      1          6           0       -1.884074   -2.135205   -0.912858
      2          6           0       -1.313862   -2.605610   -2.104505
      3          6           0       -1.723075   -2.049762   -3.334892
      4          6           0       -2.681503   -1.029140   -3.389367
      5          6           0       -3.237640   -0.567276   -2.209384
      6          6           0       -2.818914   -1.113307   -0.983499
      7          7           0       -4.227586    0.437331   -2.041619
      8          6           0       -3.477048   -0.347662    0.137435
      9          6           0       -4.733295    0.162461   -0.671181
     10          6           0       -3.951447   -1.071133    1.405395
     11          6           0       -5.809845   -1.007017   -0.735256
     12          6           0       -6.295568   -1.393404    0.667821
     13          6           0       -5.432310   -0.664614    1.716386
     14          7           0       -2.963177   -0.717992    2.426005
     15          6           0       -3.363151   -0.996549    3.797775
     16          6           0       -4.786023   -0.568928    4.156899
     17          6           0       -5.800493   -1.097857    3.142777
     18          6           0       -2.421776    0.668026    0.641079
     19          6           0       -2.491431    0.631846    2.161958
     20          6           0       -5.725486    0.860650    1.509429
     21          6           0       -5.464860    1.310603    0.046039
     22          6           0       -4.826026    2.685857   -0.029235
     23          8           0       -4.262015    3.252557    0.898230
     24          8           0       -5.029850    3.244743   -1.255623
     25          6           0       -4.442014    4.535636   -1.414845
     26          6           0       -5.142513    0.647478   -3.153704
     27          6           0       -0.238185   -3.673338   -2.067118
     28          6           0        1.006867   -3.304741   -1.280415
     29          6           0        1.506578   -1.991838   -1.276557
     30          6           0        1.690648   -4.308493   -0.556399
     31          6           0        2.843359   -4.019375    0.183837
     32          6           0        3.309781   -2.718217    0.195702
     33          6           0        2.632471   -1.711584   -0.519295
     34          7           0        4.520702   -2.256024    0.823098
     35          6           0        3.248451   -0.383586   -0.151913
     36          6           0        4.679870   -0.924574    0.165732
     37          6           0        3.402861    0.747008   -1.157908
     38          6           0        5.404767   -1.345748   -1.241519
     39          6           0        5.339849   -0.237427   -2.291539
     40          6           0        4.841406    1.041579   -1.611512
     41          7           0        2.785601    1.970523   -0.502003
     42          6           0        2.539866    2.989792   -1.566324
     43          6           0        3.896378    3.406187   -2.167876
     44          6           0        4.787707    2.223320   -2.609480
     45          6           0        2.263445    0.198398    0.904409
     46          6           0        1.604885    1.386535    0.183221
     47          6           0        5.822607    1.258805   -0.412598
     48          6           0        5.671300    0.145579    0.696994
     49          6           0        5.448354    0.769675    2.070867
     50          8           0        4.711419    0.348774    2.950900
     51          8           0        6.325682    1.803981    2.260191
     52          6           0        6.154413    2.489959    3.499505
     53          6           0        4.449270   -2.388529    2.271241
     54          8           0        3.550106    2.556512    0.476716
     55          1           0       -1.565195   -2.522183    0.052070
     56          1           0       -1.283761   -2.404085   -4.265255
     57          1           0       -2.969208   -0.614845   -4.348751
     58          1           0       -3.904810   -2.160743    1.273568
     59          1           0       -6.675133   -0.702975   -1.338283
     60          1           0       -5.410467   -1.900252   -1.231812
     61          1           0       -7.353829   -1.127592    0.784222
     62          1           0       -6.237250   -2.482006    0.790663
     63          1           0       -3.285017   -2.080771    3.951199
     64          1           0       -2.651211   -0.550997    4.503172
     65          1           0       -5.038112   -0.954009    5.152062
     66          1           0       -4.844689    0.522713    4.224505
     67          1           0       -5.823582   -2.193729    3.205293
     68          1           0       -6.805438   -0.748689    3.408533
     69          1           0       -1.406154    0.354573    0.359626
     70          1           0       -2.529263    1.671946    0.232179
     71          1           0       -1.501288    0.800485    2.599069
     72          1           0       -3.155295    1.405071    2.551676
     73          1           0       -5.180798    1.471231    2.229691
     74          1           0       -6.783732    1.054541    1.736839
     75          1           0       -6.454996    1.450355   -0.414664
     76          1           0       -3.360021    4.488482   -1.255292
     77          1           0       -4.905313    5.253205   -0.730668
     78          1           0       -4.625440    4.866888   -2.440646
     79          1           0       -5.591944   -0.290233   -3.499668
     80          1           0       -4.620471    1.117079   -3.994219
     81          1           0       -5.954994    1.321583   -2.866109
     82          1           0       -0.693529   -4.577912   -1.643259
     83          1           0        0.076753   -3.930741   -3.086195
     84          1           0        0.989346   -1.200216   -1.809015
     85          1           0        1.324606   -5.333335   -0.569057
     86          1           0        3.373262   -4.804938    0.710670
     87          1           0        2.768571    0.540504   -2.033248
     88          1           0        4.989023   -2.260138   -1.683772
     89          1           0        6.454320   -1.602232   -1.037567
     90          1           0        6.327120   -0.093209   -2.747336
     91          1           0        4.665293   -0.535988   -3.104266
     92          1           0        2.034205    3.835150   -1.088074
     93          1           0        1.876818    2.540262   -2.312773
     94          1           0        4.451984    3.997851   -1.429746
     95          1           0        3.723774    4.069715   -3.023001
     96          1           0        5.799790    2.588320   -2.821771
     97          1           0        4.387923    1.859548   -3.566003
     98          1           0        1.492853   -0.495087    1.261429
     99          1           0        2.777440    0.564302    1.790004
    100          1           0        1.175666    2.132068    0.858545
    101          1           0        0.884287    1.083625   -0.582980
    102          1           0        5.741393    2.273010   -0.014426
    103          1           0        6.854475    1.213942   -0.791479
    104          1           0        6.651089   -0.343248    0.813244
    105          1           0        6.420348    1.836072    4.335703
    106          1           0        6.828286    3.351158    3.505651
    107          1           0        5.127623    2.855489    3.602428
    108          1           0        3.600381   -1.845264    2.698739
    109          1           0        5.380513   -2.038042    2.725472
    110          1           0        4.354723   -3.441996    2.559484
 ---------------------------------------------------------------------

 SCF Done:  E(RHF) =  -2300.19492375     A.U. after   16 cycles

      1  C    Isotropic =   123.6710   Anisotropy =   156.0454

      2  C    Isotropic =   118.3527   Anisotropy =   163.3517

      3  C    Isotropic =   118.7054   Anisotropy =   152.0324

      4  C    Isotropic =   133.8098   Anisotropy =   143.8953

      5  C    Isotropic =   108.9026   Anisotropy =   128.7867

      6  C    Isotropic =   117.0015   Anisotropy =   143.1666

      7  N    Isotropic =   273.9625   Anisotropy =    82.1859

      8  C    Isotropic =   196.0077   Anisotropy =    11.5699

      9  C    Isotropic =   181.0657   Anisotropy =    44.8137

     10  C    Isotropic =   190.6243   Anisotropy =    28.8922

     11  C    Isotropic =   213.7622   Anisotropy =    20.0544

     12  C    Isotropic =   212.9252   Anisotropy =    20.9496

     13  C    Isotropic =   213.7317   Anisotropy =     9.0300

     14  N    Isotropic =   303.3043   Anisotropy =    53.5812

     15  C    Isotropic =   205.4545   Anisotropy =    35.2453

     16  C    Isotropic =   224.3208   Anisotropy =     8.4875

     17  C    Isotropic =   215.3758   Anisotropy =    19.9718

     18  C    Isotropic =   210.5793   Anisotropy =    36.4194

     19  C    Isotropic =   200.1259   Anisotropy =    41.7657

     20  C    Isotropic =   212.2734   Anisotropy =    20.9048

     21  C    Isotropic =   209.1521   Anisotropy =     9.6336

     22  C    Isotropic =    96.5441   Anisotropy =    98.6503

     23  O    Isotropic =  -135.2198   Anisotropy =   890.0878

     24  O    Isotropic =   283.7306   Anisotropy =   140.1536

     25  C    Isotropic =   197.3993   Anisotropy =    56.8863

     26  C    Isotropic =   209.8774   Anisotropy =    41.7122

     27  C    Isotropic =   206.1852   Anisotropy =    20.8830

     28  C    Isotropic =   115.6566   Anisotropy =   164.7421

     29  C    Isotropic =   127.9922   Anisotropy =   151.8398

     30  C    Isotropic =   119.3121   Anisotropy =   151.7680

     31  C    Isotropic =   127.9595   Anisotropy =   152.7727

     32  C    Isotropic =   106.8714   Anisotropy =   126.1024

     33  C    Isotropic =   113.8690   Anisotropy =   147.0081

     34  N    Isotropic =   275.9365   Anisotropy =    76.9586

     35  C    Isotropic =   199.7854   Anisotropy =    13.2904

     36  C    Isotropic =   180.0966   Anisotropy =    35.7705

     37  C    Isotropic =   183.6118   Anisotropy =    42.4471

     38  C    Isotropic =   206.6804   Anisotropy =    32.7755

     39  C    Isotropic =   213.0775   Anisotropy =    19.0670

     40  C    Isotropic =   211.8539   Anisotropy =    11.5780

     41  N    Isotropic =   235.5401   Anisotropy =    24.7317

     42  C    Isotropic =   194.0335   Anisotropy =    49.6125

     43  C    Isotropic =   219.5774   Anisotropy =    11.4164

     44  C    Isotropic =   214.8604   Anisotropy =    22.0593

     45  C    Isotropic =   207.5467   Anisotropy =    35.8377

     46  C    Isotropic =   191.2513   Anisotropy =    56.0681

     47  C    Isotropic =   210.9422   Anisotropy =    25.3185

     48  C    Isotropic =   205.7137   Anisotropy =    15.0645

     49  C    Isotropic =    97.1529   Anisotropy =    95.4262

     50  O    Isotropic =  -118.2553   Anisotropy =   854.2328

     51  O    Isotropic =   286.6502   Anisotropy =   143.8814

     52  C    Isotropic =   197.5894   Anisotropy =    56.4939

     53  C    Isotropic =   207.5045   Anisotropy =    41.7091

     54  O    Isotropic =    77.5714   Anisotropy =   401.4534

     55  H    Isotropic =    26.2291   Anisotropy =    15.2719

     56  H    Isotropic =    25.7114   Anisotropy =     5.6275

     57  H    Isotropic =    26.5362   Anisotropy =     7.4867

     58  H    Isotropic =    31.6874   Anisotropy =     8.6455

     59  H    Isotropic =    32.1914   Anisotropy =    13.6960

     60  H    Isotropic =    32.9454   Anisotropy =     8.8140

     61  H    Isotropic =    32.3935   Anisotropy =    15.4858

     62  H    Isotropic =    32.6341   Anisotropy =    13.8198

     63  H    Isotropic =    31.9894   Anisotropy =    14.2411

     64  H    Isotropic =    31.9616   Anisotropy =    14.4345

     65  H    Isotropic =    32.7210   Anisotropy =    18.1631

     66  H    Isotropic =    32.6343   Anisotropy =    10.4108

     67  H    Isotropic =    32.7250   Anisotropy =    13.4974

     68  H    Isotropic =    32.5421   Anisotropy =    15.1053

     69  H    Isotropic =    32.9049   Anisotropy =    18.6245

     70  H    Isotropic =    33.1232   Anisotropy =     8.7975

     71  H    Isotropic =    32.1412   Anisotropy =    15.2831

     72  H    Isotropic =    32.0583   Anisotropy =     8.5247

     73  H    Isotropic =    31.4649   Anisotropy =     9.0145

     74  H    Isotropic =    32.2664   Anisotropy =    15.1010

     75  H    Isotropic =    31.2179   Anisotropy =    12.5858

     76  H    Isotropic =    30.6915   Anisotropy =     8.1080

     77  H    Isotropic =    30.5921   Anisotropy =    11.6109

     78  H    Isotropic =    30.5689   Anisotropy =    11.7720

     79  H    Isotropic =    31.8772   Anisotropy =    12.1493

     80  H    Isotropic =    30.7383   Anisotropy =    13.9160

     81  H    Isotropic =    30.8868   Anisotropy =    10.7306

     82  H    Isotropic =    29.9214   Anisotropy =    11.1782

     83  H    Isotropic =    30.1709   Anisotropy =    11.4401

     84  H    Isotropic =    27.4307   Anisotropy =    16.4660

     85  H    Isotropic =    25.5908   Anisotropy =     6.1201

     86  H    Isotropic =    25.8920   Anisotropy =     7.6227

     87  H    Isotropic =    32.1312   Anisotropy =     7.1650

     88  H    Isotropic =    32.6292   Anisotropy =     9.1441

     89  H    Isotropic =    31.5485   Anisotropy =    14.9149

     90  H    Isotropic =    32.2463   Anisotropy =    16.3588

     91  H    Isotropic =    33.0660   Anisotropy =    11.6782

     92  H    Isotropic =    31.1382   Anisotropy =    13.0080

     93  H    Isotropic =    32.3740   Anisotropy =    10.7746

     94  H    Isotropic =    31.2499   Anisotropy =    12.8773

     95  H    Isotropic =    32.4406   Anisotropy =    17.3085

     96  H    Isotropic =    32.1767   Anisotropy =    15.6733

     97  H    Isotropic =    32.7785   Anisotropy =    12.3521

     98  H    Isotropic =    33.0115   Anisotropy =    11.6975

     99  H    Isotropic =    31.3354   Anisotropy =    10.8951

    100  H    Isotropic =    31.3547   Anisotropy =    13.5504

    101  H    Isotropic =    32.3404   Anisotropy =    16.8230

    102  H    Isotropic =    30.2550   Anisotropy =    10.4496

    103  H    Isotropic =    31.6499   Anisotropy =    15.0461

    104  H    Isotropic =    31.1072   Anisotropy =    13.8294

    105  H    Isotropic =    30.6685   Anisotropy =    11.0648

    106  H    Isotropic =    30.6988   Anisotropy =    12.8264

    107  H    Isotropic =    30.6355   Anisotropy =     7.1389

    108  H    Isotropic =    31.5556   Anisotropy =     8.9955

    109  H    Isotropic =    31.7581   Anisotropy =    11.9644

    110  H    Isotropic =    31.0992   Anisotropy =    14.4613

 The electronic state is 1-A.
 Alpha  occ. eigenvalues --  -20.30786 -20.28607 -20.24812 -20.22674 -19.92190
 Alpha  occ. eigenvalues --  -15.48200 -15.33813 -15.32346 -15.30545 -11.16671
 Alpha  occ. eigenvalues --  -11.15037 -11.10744 -11.09649 -11.09596 -11.09116
 Alpha  occ. eigenvalues --  -11.08846 -11.08665 -11.08563 -11.08176 -11.07189
 Alpha  occ. eigenvalues --  -11.06776 -11.06556 -11.06192 -11.06189 -11.06098
 Alpha  occ. eigenvalues --  -11.06031 -11.05898 -11.05876 -11.05697 -11.05429
 Alpha  occ. eigenvalues --  -11.05166 -11.04784 -11.04724 -11.04653 -11.04568
 Alpha  occ. eigenvalues --  -11.04501 -11.04208 -11.04091 -11.04057 -11.03911
 Alpha  occ. eigenvalues --  -11.03888 -11.03638 -11.03099 -11.02999 -11.02816
 Alpha  occ. eigenvalues --  -11.02324 -11.02115 -11.02061 -11.02049 -11.02035
 Alpha  occ. eigenvalues --  -11.01891 -11.01795 -11.01783 -11.01630  -1.38023
 Alpha  occ. eigenvalues --   -1.35955  -1.29534  -1.27832  -1.25840  -1.21642
 Alpha  occ. eigenvalues --   -1.19995  -1.18940  -1.10251  -1.09824  -1.08949
 Alpha  occ. eigenvalues --   -1.07552  -1.05796  -1.04983  -1.02739  -1.00935
 Alpha  occ. eigenvalues --   -0.99179  -0.98553  -0.98411  -0.97504  -0.96898
 Alpha  occ. eigenvalues --   -0.96259  -0.95078  -0.94606  -0.93936  -0.92431
 Alpha  occ. eigenvalues --   -0.91828  -0.91690  -0.89348  -0.89087  -0.87780
 Alpha  occ. eigenvalues --   -0.86415  -0.84569  -0.82622  -0.82052  -0.80695
 Alpha  occ. eigenvalues --   -0.80332  -0.79751  -0.78138  -0.77822  -0.77469
 Alpha  occ. eigenvalues --   -0.76988  -0.74380  -0.74052  -0.72907  -0.72189
 Alpha  occ. eigenvalues --   -0.71386  -0.70349  -0.69516  -0.68196  -0.66071
 Alpha  occ. eigenvalues --   -0.65120  -0.64964  -0.64282  -0.63672  -0.62971
 Alpha  occ. eigenvalues --   -0.62420  -0.62174  -0.61310  -0.61251  -0.61061
 Alpha  occ. eigenvalues --   -0.60774  -0.59891  -0.58940  -0.58776  -0.58432
 Alpha  occ. eigenvalues --   -0.58331  -0.58125  -0.57766  -0.57495  -0.57283
 Alpha  occ. eigenvalues --   -0.56961  -0.56469  -0.55798  -0.55507  -0.55436
 Alpha  occ. eigenvalues --   -0.55156  -0.54832  -0.54569  -0.54476  -0.54055
 Alpha  occ. eigenvalues --   -0.53669  -0.53549  -0.52948  -0.52525  -0.52338
 Alpha  occ. eigenvalues --   -0.51911  -0.51565  -0.51043  -0.50790  -0.50097
 Alpha  occ. eigenvalues --   -0.49931  -0.49705  -0.49433  -0.48645  -0.48570
 Alpha  occ. eigenvalues --   -0.48253  -0.48090  -0.47724  -0.46990  -0.46906
 Alpha  occ. eigenvalues --   -0.46543  -0.46056  -0.45955  -0.45734  -0.45254
 Alpha  occ. eigenvalues --   -0.44967  -0.44726  -0.44491  -0.43977  -0.43820
 Alpha  occ. eigenvalues --   -0.43593  -0.43212  -0.42746  -0.42452  -0.42351
 Alpha  occ. eigenvalues --   -0.42128  -0.41640  -0.41425  -0.41060  -0.40733
 Alpha  occ. eigenvalues --   -0.40223  -0.39832  -0.38622  -0.38545  -0.37886
 Alpha  occ. eigenvalues --   -0.37550  -0.37179  -0.36586  -0.35581  -0.34456
 Alpha  occ. eigenvalues --   -0.33490  -0.32421  -0.31608  -0.31244  -0.30726
 Alpha  occ. eigenvalues --   -0.27470  -0.26987  -0.26181  -0.22152  -0.21074
 Alpha  occ. eigenvalues --   -0.16138  -0.15646
 Alpha virt. eigenvalues --    0.26579   0.27270   0.27301   0.27946   0.30286
 Alpha virt. eigenvalues --    0.32658   0.45717   0.48043   0.48240   0.48622
 Alpha virt. eigenvalues --    0.49698   0.50034   0.50145   0.51174   0.52060

 Mulliken charges:
               1
     1  C   -0.074515
     2  C   -0.001542
     3  C   -0.064369
     4  C   -0.091571
     5  C    0.088330
     6  C   -0.013230
     7  N   -0.286828
     8  C    0.018286
     9  C    0.127660
    10  C    0.041041
    11  C   -0.114886
    12  C   -0.105590
    13  C    0.028043
    14  N   -0.291246
    15  C   -0.014811
    16  C   -0.108274
    17  C   -0.102001
    18  C   -0.105275
    19  C   -0.019357
    20  C   -0.110524
    21  C   -0.066603
    22  C    0.319411
    23  O   -0.276149
    24  O   -0.255764
    25  C   -0.055866
    26  C   -0.079293
    27  C   -0.110681
    28  C    0.007622
    29  C   -0.081284
    30  C   -0.066049
    31  C   -0.077256
    32  C    0.081860
    33  C   -0.012467
    34  N   -0.281604
    35  C    0.006536
    36  C    0.124122
    37  C    0.041608
    38  C   -0.100640
    39  C   -0.107462
    40  C    0.039732
    41  N   -0.080929
    42  C   -0.003729
    43  C   -0.097626
    44  C   -0.099228
    45  C   -0.105902
    46  C   -0.005236
    47  C   -0.096377
    48  C   -0.058527
    49  C    0.330750
    50  O   -0.283716
    51  O   -0.257343
    52  C   -0.054848
    53  C   -0.082978
    54  O   -0.462822
    55  H    0.068177
    56  H    0.055634
    57  H    0.058020
    58  H    0.056782
    59  H    0.050828
    60  H    0.054350
    61  H    0.048463
    62  H    0.050772
    63  H    0.054161
    64  H    0.062724
    65  H    0.054173
    66  H    0.050641
    67  H    0.050275
    68  H    0.051442
    69  H    0.059796
    70  H    0.062739
    71  H    0.058046
    72  H    0.052151
    73  H    0.068178
    74  H    0.051595
    75  H    0.065078
    76  H    0.073791
    77  H    0.073032
    78  H    0.077020
    79  H    0.055849
    80  H    0.071268
    81  H    0.077010
    82  H    0.061753
    83  H    0.060968
    84  H    0.056860
    85  H    0.056243
    86  H    0.065471
    87  H    0.054240
    88  H    0.057958
    89  H    0.053969
    90  H    0.052931
    91  H    0.045473
    92  H    0.084418
    93  H    0.056370
    94  H    0.080103
    95  H    0.057879
    96  H    0.058396
    97  H    0.046872
    98  H    0.065722
    99  H    0.098241
   100  H    0.089808
   101  H    0.058137
   102  H    0.096830
   103  H    0.046858
   104  H    0.069131
   105  H    0.067785
   106  H    0.073844
   107  H    0.079820
   108  H    0.066536
   109  H    0.069416
   110  H    0.065366
 Sum of Mulliken charges =  -0.00000

 Dipole moment (field-independent basis, Debye):
    X=             -3.9266    Y=              0.0414    Z=             -3.1183  Tot=              5.0144
 Quadrupole moment (field-independent basis, Debye-Ang):
   XX=           -289.1732   YY=           -301.3396   ZZ=           -293.9786
   XY=             -1.7270   XZ=             -5.1691   YZ=             -8.8501

 Summary of Natural Population Analysis:

                                       Natural Population
                Natural  -----------------------------------------------
    Atom  No    Charge         Core      Valence    Rydberg      Total
 -----------------------------------------------------------------------
      C    1   -0.05558      1.99993     4.05565    0.00000     6.05558
      C    2    0.01206      1.99990     3.98804    0.00000     5.98794
      C    3   -0.03619      1.99994     4.03624    0.00000     6.03619
      C    4   -0.08868      1.99993     4.08875    0.00000     6.08868
      C    5    0.11145      1.99985     3.88870    0.00000     5.88855
      C    6   -0.02399      1.99990     4.02409    0.00000     6.02399
      N    7   -0.27519      1.99998     5.27521    0.00000     7.27519
      C    8    0.01999      1.99996     3.98005    0.00000     5.98001
      C    9    0.17105      1.99996     3.82899    0.00000     5.82895
      C   10    0.07433      1.99993     3.92573    0.00000     5.92567
      C   11   -0.08507      1.99994     4.08514    0.00000     6.08507
      C   12   -0.07377      1.99996     4.07381    0.00000     6.07377
      C   13    0.05040      1.99998     3.94962    0.00000     5.94960
      N   14   -0.27963      1.99999     5.27963    0.00000     7.27963
      C   15    0.03870      1.99994     3.96136    0.00000     5.96130
      C   16   -0.07465      1.99997     4.07469    0.00000     6.07465
      C   17   -0.06824      1.99996     4.06828    0.00000     6.06824
      C   18   -0.07500      1.99995     4.07505    0.00000     6.07500
      C   19    0.03373      1.99994     3.96633    0.00000     5.96627
      C   20   -0.07379      1.99992     4.07386    0.00000     6.07379
      C   21   -0.08457      1.99994     4.08462    0.00000     6.08457
      C   22    0.40259      1.99991     3.59750    0.00000     5.59741
      O   23   -0.31017      1.99999     6.31019    0.00000     8.31017
      O   24   -0.26737      1.99999     6.26738    0.00000     8.26737
      C   25    0.03453      1.99984     3.96563    0.00000     5.96547
      C   26   -0.01658      1.99992     4.01666    0.00000     6.01658
      C   27   -0.08841      1.99995     4.08845    0.00000     6.08841
      C   28    0.02795      1.99990     3.97215    0.00000     5.97205
      C   29   -0.06775      1.99992     4.06783    0.00000     6.06775
      C   30   -0.04237      1.99994     4.04243    0.00000     6.04237
      C   31   -0.06778      1.99993     4.06784    0.00000     6.06778
      C   32    0.10068      1.99985     3.89947    0.00000     5.89932
      C   33   -0.01733      1.99990     4.01743    0.00000     6.01733
      N   34   -0.27290      1.99998     5.27292    0.00000     7.27290
      C   35   -0.00022      1.99996     4.00026    0.00000     6.00022
      C   36    0.16898      1.99996     3.83106    0.00000     5.83102
      C   37    0.07234      1.99991     3.92775    0.00000     5.92766
      C   38   -0.06576      1.99991     4.06585    0.00000     6.06576
      C   39   -0.07896      1.99996     4.07900    0.00000     6.07896
      C   40    0.05781      1.99998     3.94221    0.00000     5.94219
      N   41    0.03350      1.99999     4.96652    0.00000     6.96650
      C   42    0.04970      1.99992     3.95039    0.00000     5.95030
      C   43   -0.06407      1.99995     4.06412    0.00000     6.06407
      C   44   -0.06248      1.99995     4.06254    0.00000     6.06248
      C   45   -0.07433      1.99993     4.07440    0.00000     6.07433
      C   46    0.04569      1.99993     3.95437    0.00000     5.95431
      C   47   -0.05825      1.99991     4.05834    0.00000     6.05825
      C   48   -0.07238      1.99993     4.07245    0.00000     6.07238
      C   49    0.41487      1.99990     3.58523    0.00000     5.58513
      O   50   -0.31988      1.99998     6.31990    0.00000     8.31988
      O   51   -0.27033      1.99999     6.27034    0.00000     8.27033
      C   52    0.03549      1.99984     3.96467    0.00000     5.96451
      C   53   -0.02118      1.99992     4.02126    0.00000     6.02118
      O   54   -0.51540      2.00000     6.51540    0.00000     8.51540
      H   55    0.04188      0.00000     0.95812    0.00000     0.95812
      H   56    0.02862      0.00000     0.97138    0.00000     0.97138
      H   57    0.03405      0.00000     0.96595    0.00000     0.96595
      H   58    0.02559      0.00000     0.97441    0.00000     0.97441
      H   59    0.02870      0.00000     0.97130    0.00000     0.97130
      H   60    0.03145      0.00000     0.96855    0.00000     0.96855
      H   61    0.02747      0.00000     0.97253    0.00000     0.97253
      H   62    0.02969      0.00000     0.97031    0.00000     0.97031
      H   63    0.02707      0.00000     0.97293    0.00000     0.97293
      H   64    0.03680      0.00000     0.96320    0.00000     0.96320
      H   65    0.03429      0.00000     0.96571    0.00000     0.96571
      H   66    0.03001      0.00000     0.96999    0.00000     0.96999
      H   67    0.02947      0.00000     0.97053    0.00000     0.97053
      H   68    0.03055      0.00000     0.96945    0.00000     0.96945
      H   69    0.03868      0.00000     0.96132    0.00000     0.96132
      H   70    0.04016      0.00000     0.95984    0.00000     0.95984
      H   71    0.03180      0.00000     0.96820    0.00000     0.96820
      H   72    0.02307      0.00000     0.97693    0.00000     0.97693
      H   73    0.04289      0.00000     0.95711    0.00000     0.95711
      H   74    0.02943      0.00000     0.97057    0.00000     0.97057
      H   75    0.04222      0.00000     0.95778    0.00000     0.95778
      H   76    0.04240      0.00000     0.95760    0.00000     0.95760
      H   77    0.04145      0.00000     0.95855    0.00000     0.95855
      H   78    0.04597      0.00000     0.95403    0.00000     0.95403
      H   79    0.03042      0.00000     0.96958    0.00000     0.96958
      H   80    0.04692      0.00000     0.95308    0.00000     0.95308
      H   81    0.05254      0.00000     0.94746    0.00000     0.94746
      H   82    0.04292      0.00000     0.95708    0.00000     0.95708
      H   83    0.04216      0.00000     0.95784    0.00000     0.95784
      H   84    0.03182      0.00000     0.96818    0.00000     0.96818
      H   85    0.02913      0.00000     0.97087    0.00000     0.97087
      H   86    0.04001      0.00000     0.95999    0.00000     0.95999
      H   87    0.02190      0.00000     0.97810    0.00000     0.97810
      H   88    0.03288      0.00000     0.96712    0.00000     0.96712
      H   89    0.02968      0.00000     0.97032    0.00000     0.97032
      H   90    0.03253      0.00000     0.96747    0.00000     0.96747
      H   91    0.02497      0.00000     0.97503    0.00000     0.97503
      H   92    0.05284      0.00000     0.94716    0.00000     0.94716
      H   93    0.02578      0.00000     0.97422    0.00000     0.97422
      H   94    0.05555      0.00000     0.94445    0.00000     0.94445
      H   95    0.03620      0.00000     0.96380    0.00000     0.96380
      H   96    0.03613      0.00000     0.96387    0.00000     0.96387
      H   97    0.02483      0.00000     0.97517    0.00000     0.97517
      H   98    0.04321      0.00000     0.95679    0.00000     0.95679
      H   99    0.07016      0.00000     0.92984    0.00000     0.92984
      H  100    0.05832      0.00000     0.94168    0.00000     0.94168
      H  101    0.02772      0.00000     0.97228    0.00000     0.97228
      H  102    0.06791      0.00000     0.93209    0.00000     0.93209
      H  103    0.02306      0.00000     0.97694    0.00000     0.97694
      H  104    0.04476      0.00000     0.95524    0.00000     0.95524
      H  105    0.03653      0.00000     0.96347    0.00000     0.96347
      H  106    0.04310      0.00000     0.95690    0.00000     0.95690
      H  107    0.04796      0.00000     0.95204    0.00000     0.95204
      H  108    0.03992      0.00000     0.96008    0.00000     0.96008
      H  109    0.04513      0.00000     0.95487    0.00000     0.95487
      H  110    0.04172      0.00000     0.95828    0.00000     0.95828
 =======================================================================
   * Total *   -0.00000    107.99662   286.00338    0.00000   394.00000

 Normal termination of Gaussian 16 at Thu May 30 10:01:05 2024.
